 Entering Link 1 = C:\G09W\l1.exe PID=     12840.
  
 Copyright (c) 1988,1990,1992,1993,1995,1998,2003,2009, Gaussian, Inc.
                  All Rights Reserved.
  
 This is part of the Gaussian(R) 09 program.  It is based on
 the Gaussian(R) 03 system (copyright 2003, Gaussian, Inc.),
 the Gaussian(R) 98 system (copyright 1998, Gaussian, Inc.),
 the Gaussian(R) 94 system (copyright 1995, Gaussian, Inc.),
 the Gaussian 92(TM) system (copyright 1992, Gaussian, Inc.),
 the Gaussian 90(TM) system (copyright 1990, Gaussian, Inc.),
 the Gaussian 88(TM) system (copyright 1988, Gaussian, Inc.),
 the Gaussian 86(TM) system (copyright 1986, Carnegie Mellon
 University), and the Gaussian 82(TM) system (copyright 1983,
 Carnegie Mellon University). Gaussian is a federally registered
 trademark of Gaussian, Inc.
  
 This software contains proprietary and confidential information,
 including trade secrets, belonging to Gaussian, Inc.
  
 This software is provided under written license and may be
 used, copied, transmitted, or stored only in accord with that
 written license.
  
 The following legend is applicable only to US Government
 contracts under FAR:
  
                    RESTRICTED RIGHTS LEGEND
  
 Use, reproduction and disclosure by the US Government is
 subject to restrictions as set forth in subparagraphs (a)
 and (c) of the Commercial Computer Software - Restricted
 Rights clause in FAR 52.227-19.
  
 Gaussian, Inc.
 340 Quinnipiac St., Bldg. 40, Wallingford CT 06492
  
  
 ---------------------------------------------------------------
 Warning -- This program may not be used in any manner that
 competes with the business of Gaussian, Inc. or will provide
 assistance to any competitor of Gaussian, Inc.  The licensee
 of this program is prohibited from giving any competitor of
 Gaussian, Inc. access to this program.  By using this program,
 the user acknowledges that Gaussian, Inc. is engaged in the
 business of creating and licensing software in the field of
 computational chemistry and represents and warrants to the
 licensee that it is not a competitor of Gaussian, Inc. and that
 it will not use this program in any manner prohibited above.
 ---------------------------------------------------------------
  

 Cite this work as:
 Gaussian 09, Revision A.02,
 M. J. Frisch, G. W. Trucks, H. B. Schlegel, G. E. Scuseria, 
 M. A. Robb, J. R. Cheeseman, G. Scalmani, V. Barone, B. Mennucci, 
 G. A. Petersson, H. Nakatsuji, M. Caricato, X. Li, H. P. Hratchian, 
 A. F. Izmaylov, J. Bloino, G. Zheng, J. L. Sonnenberg, M. Hada, 
 M. Ehara, K. Toyota, R. Fukuda, J. Hasegawa, M. Ishida, T. Nakajima, 
 Y. Honda, O. Kitao, H. Nakai, T. Vreven, J. A. Montgomery, Jr., 
 J. E. Peralta, F. Ogliaro, M. Bearpark, J. J. Heyd, E. Brothers, 
 K. N. Kudin, V. N. Staroverov, R. Kobayashi, J. Normand, 
 K. Raghavachari, A. Rendell, J. C. Burant, S. S. Iyengar, J. Tomasi, 
 M. Cossi, N. Rega, J. M. Millam, M. Klene, J. E. Knox, J. B. Cross, 
 V. Bakken, C. Adamo, J. Jaramillo, R. Gomperts, R. E. Stratmann, 
 O. Yazyev, A. J. Austin, R. Cammi, C. Pomelli, J. W. Ochterski, 
 R. L. Martin, K. Morokuma, V. G. Zakrzewski, G. A. Voth, 
 P. Salvador, J. J. Dannenberg, S. Dapprich, A. D. Daniels, 
 O. Farkas, J. B. Foresman, J. V. Ortiz, J. Cioslowski, 
 and D. J. Fox, Gaussian, Inc., Wallingford CT, 2009.
 
 ******************************************
 Gaussian 09:  IA32W-G09RevA.02 11-Jun-2009
                17-Jan-2019 
 ******************************************
 %mem=100mw
 %chk=NH3.chk
 ----------------------------------------------
 # M062X 6-311++G(d,p) SCRF=SMD opt FREQ volume
 ----------------------------------------------
 1/14=-1,18=20,19=15,26=3,38=1/1,3;
 2/9=110,12=2,17=6,18=5,40=1/2;
 3/5=4,6=6,7=1111,11=2,16=1,25=1,30=1,70=32201,71=1,72=1,74=-55/1,2,3;
 4//1;
 5/5=2,38=5/2;
 6/7=2,8=2,9=2,10=2,28=1,44=1/1,4;
 7//1,2,3,16;
 1/14=-1,18=20,19=15/3(2);
 2/9=110/2;
 99//99;
 2/9=110/2;
 3/5=4,6=6,7=1111,11=2,16=1,25=1,30=1,70=32205,71=1,74=-55/1,2,3;
 4/5=5,16=3/1;
 5/5=2,38=5/2;
 7//1,2,3,16;
 1/14=-1,18=20,19=15/3(-5);
 2/9=110/2;
 6/7=2,8=2,9=2,10=2,19=2,28=1,44=1/1,4;
 99/9=1/99;
 ------------------------------------------
 nh3_m062x.inp transition state frequencies
 ------------------------------------------
 Symbolic Z-matrix:
 Charge =  0 Multiplicity = 1
 N                     0.        0.        0.11609 
 H                     0.        0.93889  -0.27088 
 H                    -0.8131   -0.46945  -0.27088 
 H                     0.8131   -0.46945  -0.27088 
 

 GradGradGradGradGradGradGradGradGradGradGradGradGradGradGradGradGradGrad
 Berny optimization.
 Initialization pass.
                           ----------------------------
                           !    Initial Parameters    !
                           ! (Angstroms and Degrees)  !
 --------------------------                            --------------------------
 ! Name  Definition              Value          Derivative Info.                !
 --------------------------------------------------------------------------------
 ! R1    R(1,2)                  1.0155         estimate D2E/DX2                !
 ! R2    R(1,3)                  1.0155         estimate D2E/DX2                !
 ! R3    R(1,4)                  1.0155         estimate D2E/DX2                !
 ! A1    A(2,1,3)              106.3911         estimate D2E/DX2                !
 ! A2    A(2,1,4)              106.3911         estimate D2E/DX2                !
 ! A3    A(3,1,4)              106.3912         estimate D2E/DX2                !
 ! D1    D(2,1,4,3)           -113.1495         estimate D2E/DX2                !
 --------------------------------------------------------------------------------
 Trust Radius=3.00D-01 FncErr=1.00D-07 GrdErr=1.00D-06
 Number of steps in this run=  20 maximum allowed number of steps= 100.
 GradGradGradGradGradGradGradGradGradGradGradGradGradGradGradGradGradGrad

                          Input orientation:                          
 ---------------------------------------------------------------------
 Center     Atomic      Atomic             Coordinates (Angstroms)
 Number     Number       Type             X           Y           Z
 ---------------------------------------------------------------------
      1          7           0        0.000000    0.000000    0.116090
      2          1           0        0.000000    0.938890   -0.270877
      3          1           0       -0.813103   -0.469445   -0.270877
      4          1           0        0.813103   -0.469445   -0.270877
 ---------------------------------------------------------------------
                    Distance matrix (angstroms):
                    1          2          3          4
     1  N    0.000000
     2  H    1.015509   0.000000
     3  H    1.015509   1.626205   0.000000
     4  H    1.015509   1.626205   1.626206   0.000000
 Stoichiometry    H3N
 Framework group  C3V[C3(N),3SGV(H)]
 Deg. of freedom     2
 Full point group                 C3V     NOp   6
 Largest Abelian subgroup         CS      NOp   2
 Largest concise Abelian subgroup CS      NOp   2
                         Standard orientation:                         
 ---------------------------------------------------------------------
 Center     Atomic      Atomic             Coordinates (Angstroms)
 Number     Number       Type             X           Y           Z
 ---------------------------------------------------------------------
      1          7           0        0.000000    0.000000    0.116090
      2          1           0        0.000000    0.938890   -0.270877
      3          1           0       -0.813103   -0.469445   -0.270877
      4          1           0        0.813103   -0.469445   -0.270877
 ---------------------------------------------------------------------
 Rotational constants (GHZ):    296.4155069    296.4155069    189.6187901
 Standard basis: 6-311++G(d,p) (5D, 7F)
 There are    29 symmetry adapted basis functions of A'  symmetry.
 There are    14 symmetry adapted basis functions of A"  symmetry.
 Integral buffers will be    262144 words long.
 Raffenetti 2 integral format.
 Two-electron integral symmetry is turned on.
    43 basis functions,    63 primitive gaussians,    44 cartesian basis functions
     5 alpha electrons        5 beta electrons
       nuclear repulsion energy        11.9192282058 Hartrees.
 NAtoms=    4 NActive=    4 NUniq=    2 SFac= 3.00D+00 NAtFMM=   80 NAOKFM=F Big=F
 ------------------------------------------------------------------------------
 Polarizable Continuum Model (PCM)
 =================================
 Model                : PCM.
 Atomic radii         : SMD-Coulomb.
 Polarization charges : Total charges.
 Charge compensation  : None.
 Solution method      : Matrix inversion.
 Cavity type          : VdW (van der Waals Surface) (Alpha=1.000).
 Cavity algorithm     : GePol (No added spheres)
                        Default sphere list used, NSphG=    4.
                        Lebedev-Laikov grids with approx.  5.0 points / Ang**2.
                        Smoothing algorithm: Karplus/York (Gamma=1.0000).
                        Polarization charges: spherical gaussians, with
                                              point-specific exponents (IZeta= 3).
                        Self-potential: point-specific (ISelfS= 7).
                        Self-field    : sphere-specific E.n sum rule (ISelfD= 2).
 1st derivatives      : Analytical E(r).r(x)/FMM algorithm (CHGder, D1EAlg=3).
                        Cavity 1st derivative terms included.
 Solvent              : Water, Eps=  78.355300 Eps(inf)=   1.777849
 ------------------------------------------------------------------------------
 Spheres list:
 ISph  on   Nord    Re0     Alpha      Xe            Ye            Ze
    1   N      1    1.890   1.000      0.000000      0.000000      0.116090
    2   H      2    1.200   1.000      0.000000      0.938890     -0.270877
    3   H      3    1.200   1.000     -0.813103     -0.469445     -0.270877
    4   H      4    1.200   1.000      0.813103     -0.469445     -0.270877
 ------------------------------------------------------------------------------
 ------------------------------------------------------------------------------
 Atomic radii for non-electrostatic terms: SMD-CDS.
 ------------------------------------------------------------------------------
 Nuclear repulsion after PCM non-electrostatic terms =       11.9226811904 Hartrees.
 One-electron integrals computed using PRISM.
 NBasis=    43 RedAO= T  NBF=    29    14
 NBsUse=    43 1.00D-06 NBFU=    29    14
 Harris functional with IExCor= 1009 diagonalized for initial guess.
 ExpMin= 3.60D-02 ExpMax= 6.29D+03 ExpMxC= 9.49D+02 IAcc=3 IRadAn=         0 AccDes= 0.00D+00
 HarFok:  IExCor= 1009 AccDes= 0.00D+00 IRadAn=         0 IDoV= 1
 ScaDFX=  1.000000  1.000000  1.000000  1.000000
 FoFCou: FMM=F IPFlag=           0 FMFlag=      100000 FMFlg1=           0
         NFxFlg=           0 DoJE=T BraDBF=F KetDBF=T FulRan=T
         Omega=  0.000000  0.000000  1.000000  0.000000  0.000000 ICntrl=     500 IOpCl=  0
         NMat0=    1 NMatS0=    1 NMatT0=    0 NMatD0=    1 NMtDS0=    0 NMtDT0=    0
         I1Cent=           4 NGrid=           0.
 Petite list used in FoFCou.
 Initial guess orbital symmetries:
       Occupied  (A1) (A1) (E) (E) (A1)
       Virtual   (A1) (E) (E) (A1) (E) (E) (A1) (E) (E) (A1) (E)
                 (E) (A1) (A1) (E) (E) (A1) (E) (E) (A2) (A1) (E)
                 (E) (E) (E) (A1) (E) (E) (E) (E) (A1) (A1) (E)
                 (E) (A1) (E) (E) (A1)
 The electronic state of the initial guess is 1-A1.
 Requested convergence on RMS density matrix=1.00D-08 within 128 cycles.
 Requested convergence on MAX density matrix=1.00D-06.
 Requested convergence on             energy=1.00D-06.
 No special actions if energy rises.
 Keep R1 ints in memory in canonical form, NReq=3584251.
 Error on total polarization charges =  0.01953
 SCF Done:  E(RM062X) =  -56.5524385553     A.U. after    9 cycles
             Convg  =    0.6898D-08             -V/T =  2.0042
 SMD-CDS (non-electrostatic) energy             (kcal/mol) =       2.17
 (included in total energy above)

 **********************************************************************

            Population analysis using the SCF density.

 **********************************************************************

 Orbital symmetries:
       Occupied  (A1) (A1) (E) (E) (A1)
       Virtual   (A1) (E) (E) (A1) (E) (E) (A1) (E) (E) (A1) (E)
                 (E) (A1) (A1) (E) (E) (A1) (E) (E) (A2) (A1) (E)
                 (E) (E) (E) (A1) (E) (E) (A1) (E) (E) (A1) (E)
                 (E) (A1) (E) (E) (A1)
 The electronic state is 1-A1.
 Alpha  occ. eigenvalues --  -14.71734  -0.94884  -0.52268  -0.52267  -0.34137
 Alpha virt. eigenvalues --    0.00532   0.04238   0.04239   0.12609   0.15648
 Alpha virt. eigenvalues --    0.15649   0.17520   0.24362   0.24363   0.25802
 Alpha virt. eigenvalues --    0.53362   0.53362   0.69694   0.82161   0.86173
 Alpha virt. eigenvalues --    0.86174   1.06198   1.17259   1.17260   1.58962
 Alpha virt. eigenvalues --    1.61615   1.73925   1.73926   1.97370   1.97370
 Alpha virt. eigenvalues --    2.34743   2.52963   2.52963   2.67375   2.69834
 Alpha virt. eigenvalues --    2.69835   2.89217   3.14734   3.14734   4.15972
 Alpha virt. eigenvalues --    4.80552   4.80552  35.72234
          Condensed to atoms (all electrons):
              1          2          3          4
     1  N    6.691226   0.375825   0.375825   0.375825
     2  H    0.375825   0.412988  -0.030856  -0.030856
     3  H    0.375825  -0.030856   0.412988  -0.030856
     4  H    0.375825  -0.030856  -0.030856   0.412988
 Mulliken atomic charges:
              1
     1  N   -0.818701
     2  H    0.272900
     3  H    0.272900
     4  H    0.272900
 Sum of Mulliken atomic charges =   0.00000
 Mulliken charges with hydrogens summed into heavy atoms:
              1
     1  N    0.000000
 Sum of Mulliken charges with hydrogens summed into heavy atoms =   0.00000
 Electronic spatial extent (au):  <R**2>=             27.0418
 Charge=              0.0000 electrons
 Dipole moment (field-independent basis, Debye):
    X=              0.0000    Y=              0.0000    Z=             -2.2482  Tot=              2.2482
 Quadrupole moment (field-independent basis, Debye-Ang):
   XX=             -6.2354   YY=             -6.2354   ZZ=             -9.6887
   XY=              0.0000   XZ=              0.0000   YZ=              0.0000
 Traceless Quadrupole moment (field-independent basis, Debye-Ang):
   XX=              1.1511   YY=              1.1511   ZZ=             -2.3022
   XY=              0.0000   XZ=              0.0000   YZ=              0.0000
 Octapole moment (field-independent basis, Debye-Ang**2):
  XXX=              0.0000  YYY=              1.0070  ZZZ=             -2.6305  XYY=              0.0000
  XXY=             -1.0070  XXZ=             -1.2850  XZZ=              0.0000  YZZ=              0.0000
  YYZ=             -1.2850  XYZ=              0.0000
 Hexadecapole moment (field-independent basis, Debye-Ang**3):
 XXXX=            -10.2246 YYYY=            -10.2246 ZZZZ=            -14.3526 XXXY=              0.0000
 XXXZ=              0.0000 YYYX=              0.0000 YYYZ=             -0.3857 ZZZX=              0.0000
 ZZZY=              0.0000 XXYY=             -3.4082 XXZZ=             -4.1573 YYZZ=             -4.1573
 XXYZ=              0.3857 YYXZ=              0.0000 ZZXY=              0.0000
 N-N= 1.192268119042D+01 E-N=-1.559190669486D+02  KE= 5.631465241495D+01
 Symmetry A'   KE= 5.363319418343D+01
 Symmetry A"   KE= 2.681458231528D+00
 Evaluate density.
 Using the total density.
 Monte-Carlo method of calculating molar volume:
 based on  0.001 e/bohr**3 density envelope.
 Number of points per bohr**3 =   20 CutOff= 1.00D-04
 Using the SCF density.
 There are       219 points.  Will hold       219 in memory.
 LenV=   104845152 MDV=   104857600.
 Box volume = 1318.862 fraction occupied=0.183
 Integrated density= 5.2910209941203830D+00 error=-4.7089790058796170D+00
 Molar volume =  240.888 bohr**3/mol ( 21.497 cm**3/mol)
 Recommended a0 for SCRF calculation =  2.75 angstrom (  5.19 bohr)
 D1PCM: PCM CHGder 1st derivatives, ID1Alg=3 FixD1E=F DoIter=F DoCFld=F I1PDM=0.
 Calling FoFJK, ICntrl=      2127 FMM=F ISym2X=1 I1Cent= 0 IOpClX= 0 NMat=1 NMatS=1 NMatT=0.
 ***** Axes restored to original set *****
 -------------------------------------------------------------------
 Center     Atomic                   Forces (Hartrees/Bohr)
 Number     Number              X              Y              Z
 -------------------------------------------------------------------
      1        7           0.000000000    0.000014850   -0.000163560
      2        1           0.000000000   -0.000003097    0.000027293
      3        1           0.000020867   -0.000005876    0.000068133
      4        1          -0.000020867   -0.000005876    0.000068133
 -------------------------------------------------------------------
 Cartesian Forces:  Max     0.000163560 RMS     0.000056237

 GradGradGradGradGradGradGradGradGradGradGradGradGradGradGradGradGradGrad
 Berny optimization.
 Internal  Forces:  Max     0.000063256 RMS     0.000041902
 Search for a local minimum.
 Step number   1 out of a maximum of   20
 All quantities printed in internal units (Hartrees-Bohrs-Radians)
 Mixed Optimization -- En-DIIS/RFO-DIIS
 Second derivative matrix not updated -- first step.
 The second derivative matrix:
                          R1        R2        R3        A1        A2
           R1           0.45062
           R2           0.00000   0.45062
           R3           0.00000   0.00000   0.45062
           A1           0.00000   0.00000   0.00000   0.16000
           A2           0.00000   0.00000   0.00000   0.00000   0.16000
           A3           0.00000   0.00000   0.00000   0.00000   0.00000
           D1           0.00000   0.00000   0.00000   0.00000   0.00000
                          A3        D1
           A3           0.16000
           D1           0.00000   0.00823
     Eigenvalues ---    0.06481   0.16000   0.16000   0.45062   0.45062
     Eigenvalues ---    0.450621000.00000
 RFO step:  Lambda=-1.23162502D-07 EMin= 6.48115522D-02
 Linear search not attempted -- first point.
 Iteration  1 RMS(Cart)=  0.00030841 RMS(Int)=  0.00000021
 Iteration  2 RMS(Cart)=  0.00000012 RMS(Int)=  0.00000016
 ClnCor:  largest displacement from symmetrization is 1.39D-04 for atom     3.
 Variable       Old X    -DE/DX   Delta X   Delta X   Delta X     New X
                                 (Linear)    (Quad)   (Total)
    R1        1.91903  -0.00002   0.00000  -0.00005  -0.00001   1.91902
    R2        1.91903  -0.00004   0.00000  -0.00008  -0.00001   1.91902
    R3        1.91903  -0.00004   0.00000  -0.00008  -0.00001   1.91902
    A1        1.85688   0.00002   0.00000   0.00051   0.00049   1.85737
    A2        1.85688   0.00006   0.00000   0.00054   0.00049   1.85737
    A3        1.85688   0.00003   0.00000   0.00036   0.00049   1.85737
    D1       -1.97483  -0.00006   0.00000  -0.00098  -0.00099  -1.97583
         Item               Value     Threshold  Converged?
 Maximum Force            0.000063     0.000450     YES
 RMS     Force            0.000042     0.000300     YES
 Maximum Displacement     0.000586     0.001800     YES
 RMS     Displacement     0.000333     0.001200     YES
 Predicted change in Energy=-5.732042D-08
 Optimization completed.
    -- Stationary point found.
                           ----------------------------
                           !   Optimized Parameters   !
                           ! (Angstroms and Degrees)  !
 --------------------------                            --------------------------
 ! Name  Definition              Value          Derivative Info.                !
 --------------------------------------------------------------------------------
 ! R1    R(1,2)                  1.0155         -DE/DX =    0.0                 !
 ! R2    R(1,3)                  1.0155         -DE/DX =    0.0                 !
 ! R3    R(1,4)                  1.0155         -DE/DX =    0.0                 !
 ! A1    A(2,1,3)              106.3911         -DE/DX =    0.0                 !
 ! A2    A(2,1,4)              106.3911         -DE/DX =    0.0001              !
 ! A3    A(3,1,4)              106.3911         -DE/DX =    0.0                 !
 ! D1    D(2,1,4,3)           -113.1495         -DE/DX =   -0.0001              !
 --------------------------------------------------------------------------------
 GradGradGradGradGradGradGradGradGradGradGradGradGradGradGradGradGradGrad

                          Input orientation:                          
 ---------------------------------------------------------------------
 Center     Atomic      Atomic             Coordinates (Angstroms)
 Number     Number       Type             X           Y           Z
 ---------------------------------------------------------------------
      1          7           0        0.000000    0.000000    0.116090
      2          1           0        0.000000    0.938890   -0.270877
      3          1           0       -0.813102   -0.469445   -0.270877
      4          1           0        0.813103   -0.469445   -0.270877
 ---------------------------------------------------------------------
                    Distance matrix (angstroms):
                    1          2          3          4
     1  N    0.000000
     2  H    1.015509   0.000000
     3  H    1.015509   1.626205   0.000000
     4  H    1.015509   1.626205   1.626205   0.000000
 Stoichiometry    H3N
 Framework group  C3V[C3(N),3SGV(H)]
 Deg. of freedom     2
 Full point group                 C3V     NOp   6
 Largest Abelian subgroup         CS      NOp   2
 Largest concise Abelian subgroup CS      NOp   2
                         Standard orientation:                         
 ---------------------------------------------------------------------
 Center     Atomic      Atomic             Coordinates (Angstroms)
 Number     Number       Type             X           Y           Z
 ---------------------------------------------------------------------
      1          7           0        0.000000    0.000000    0.116090
      2          1           0        0.000000    0.938890   -0.270877
      3          1           0       -0.813103   -0.469445   -0.270877
      4          1           0        0.813103   -0.469445   -0.270877
 ---------------------------------------------------------------------
 Rotational constants (GHZ):    296.4155069    296.4155069    189.6187901
 1|1|UNPC-DESKTOP-5V797MC|FOpt|RM062X|6-311++G(d,p)|H3N1|FLAVIO|17-Jan-
 2019|0||# M062X 6-311++G(d,p) SCRF=SMD opt FREQ volume||nh3_m062x.inp 
 transition state frequencies||0,1|N,0.,0.,0.11609|H,-0.0000002043,0.93
 889,-0.270877|H,-0.8131024892,-0.4694451769,-0.270877|H,0.8131026935,-
 0.4694448231,-0.270877||Version=IA32W-G09RevA.02|State=1-A1|HF=-56.552
 4386|RMSD=6.898e-009|RMSF=5.624e-005|Dipole=0.,0.,-0.8844928|Quadrupol
 e=0.85582,0.85582,-1.71164,0.,0.,0.|PG=C03V [C3(N1),3SGV(H1)]||@


      TO SUSPECT YOUR OWN MORTALITY IS TO KNOW THE BEGINNING OF TERROR.
      TO LEARN IRREFUTABLY THAT YOU ARE MORTAL IS TO KNOW THE END
      OF TERROR.

                                                  -- JESSICA
                                                     CHILDREN OF DUNE
                                                     BY FRANK HERBERT
 Job cpu time:  0 days  0 hours  0 minutes 10.0 seconds.
 File lengths (MBytes):  RWF=      5 Int=      0 D2E=      0 Chk=      1 Scr=      1
 Normal termination of Gaussian 09 at Thu Jan 17 19:51:29 2019.
 Link1:  Proceeding to internal job step number  2.
 ----------------------------------------------------------------------
 #N Geom=AllCheck Guess=TCheck SCRF=Check GenChk RM062X/6-311++G(d,p) F
 req
 ----------------------------------------------------------------------
 1/10=4,29=7,30=1,38=1,40=1/1,3;
 2/12=2,40=1/2;
 3/5=4,6=6,7=1111,11=2,14=-4,16=1,25=1,30=1,70=2,71=2,74=-55,116=1/1,2,3;
 4/5=101/1;
 5/5=2,98=1/2;
 8/6=4,10=90,11=11/1;
 11/6=1,8=1,9=11,15=111,16=1/1,2,10;
 10/6=1/2;
 6/7=2,8=2,9=2,10=2,18=1,28=1/1;
 7/8=1,10=1,25=1/1,2,3,16;
 1/10=4,30=1/3;
 99//99;
 ------------------------------------------
 nh3_m062x.inp transition state frequencies
 ------------------------------------------
 Redundant internal coordinates taken from checkpoint file:
 NH3.chk
 Charge =  0 Multiplicity = 1
 N,0,0.,0.,0.11609
 H,0,-0.0000002043,0.93889,-0.270877
 H,0,-0.8131024892,-0.4694451769,-0.270877
 H,0,0.8131026935,-0.4694448231,-0.270877
 Recover connectivity data from disk.

 GradGradGradGradGradGradGradGradGradGradGradGradGradGradGradGradGradGrad
 Berny optimization.
 Initialization pass.
                           ----------------------------
                           !    Initial Parameters    !
                           ! (Angstroms and Degrees)  !
 --------------------------                            --------------------------
 ! Name  Definition              Value          Derivative Info.                !
 --------------------------------------------------------------------------------
 ! R1    R(1,2)                  1.0155         calculate D2E/DX2 analytically  !
 ! R2    R(1,3)                  1.0155         calculate D2E/DX2 analytically  !
 ! R3    R(1,4)                  1.0155         calculate D2E/DX2 analytically  !
 ! A1    A(2,1,3)              106.3911         calculate D2E/DX2 analytically  !
 ! A2    A(2,1,4)              106.3911         calculate D2E/DX2 analytically  !
 ! A3    A(3,1,4)              106.3911         calculate D2E/DX2 analytically  !
 ! D1    D(2,1,4,3)           -113.1495         calculate D2E/DX2 analytically  !
 --------------------------------------------------------------------------------
 Trust Radius=3.00D-01 FncErr=1.00D-07 GrdErr=1.00D-07
 Number of steps in this run=   2 maximum allowed number of steps=   2.
 GradGradGradGradGradGradGradGradGradGradGradGradGradGradGradGradGradGrad

                          Input orientation:                          
 ---------------------------------------------------------------------
 Center     Atomic      Atomic             Coordinates (Angstroms)
 Number     Number       Type             X           Y           Z
 ---------------------------------------------------------------------
      1          7           0        0.000000    0.000000    0.116090
      2          1           0        0.000000    0.938890   -0.270877
      3          1           0       -0.813102   -0.469445   -0.270877
      4          1           0        0.813103   -0.469445   -0.270877
 ---------------------------------------------------------------------
                    Distance matrix (angstroms):
                    1          2          3          4
     1  N    0.000000
     2  H    1.015509   0.000000
     3  H    1.015509   1.626205   0.000000
     4  H    1.015509   1.626205   1.626205   0.000000
 Stoichiometry    H3N
 Framework group  C3V[C3(N),3SGV(H)]
 Deg. of freedom     2
 Full point group                 C3V     NOp   6
 Largest Abelian subgroup         CS      NOp   2
 Largest concise Abelian subgroup CS      NOp   2
                         Standard orientation:                         
 ---------------------------------------------------------------------
 Center     Atomic      Atomic             Coordinates (Angstroms)
 Number     Number       Type             X           Y           Z
 ---------------------------------------------------------------------
      1          7           0        0.000000    0.000000    0.116090
      2          1           0        0.000000    0.938890   -0.270877
      3          1           0       -0.813103   -0.469445   -0.270877
      4          1           0        0.813103   -0.469445   -0.270877
 ---------------------------------------------------------------------
 Rotational constants (GHZ):    296.4155069    296.4155069    189.6187901
 Standard basis: 6-311++G(d,p) (5D, 7F)
 There are    29 symmetry adapted basis functions of A'  symmetry.
 There are    14 symmetry adapted basis functions of A"  symmetry.
 Integral buffers will be    262144 words long.
 Raffenetti 2 integral format.
 Two-electron integral symmetry is turned on.
    43 basis functions,    63 primitive gaussians,    44 cartesian basis functions
     5 alpha electrons        5 beta electrons
       nuclear repulsion energy        11.9192282058 Hartrees.
 NAtoms=    4 NActive=    4 NUniq=    2 SFac= 3.00D+00 NAtFMM=   80 NAOKFM=F Big=F
 ------------------------------------------------------------------------------
 Polarizable Continuum Model (PCM)
 =================================
 Model                : PCM.
 Atomic radii         : SMD-Coulomb.
 Polarization charges : Total charges.
 Charge compensation  : None.
 Solution method      : Matrix inversion.
 Cavity type          : VdW (van der Waals Surface) (Alpha=1.000).
 Cavity algorithm     : GePol (No added spheres)
                        Default sphere list used, NSphG=    4.
                        Lebedev-Laikov grids with approx.  5.0 points / Ang**2.
                        Smoothing algorithm: Karplus/York (Gamma=1.0000).
                        Polarization charges: spherical gaussians, with
                                              point-specific exponents (IZeta= 3).
                        Self-potential: point-specific (ISelfS= 7).
                        Self-field    : sphere-specific E.n sum rule (ISelfD= 2).
 1st derivatives      : Analytical E(r).r(x)/FMM algorithm (CHGder, D1EAlg=3).
                        Cavity 1st derivative terms included.
 2nd derivatives      : Analytical E(r).r(xy)/FMM algorithm (CHGder, D2EAlg=3).
                        Cavity 2nd derivative terms included.
 Solvent              : Water, Eps=  78.355300 Eps(inf)=   1.777849
 ------------------------------------------------------------------------------
 Spheres list:
 ISph  on   Nord    Re0     Alpha      Xe            Ye            Ze
    1   N      1    1.890   1.000      0.000000      0.000000      0.116090
    2   H      2    1.200   1.000      0.000000      0.938890     -0.270877
    3   H      3    1.200   1.000     -0.813103     -0.469445     -0.270877
    4   H      4    1.200   1.000      0.813103     -0.469445     -0.270877
 ------------------------------------------------------------------------------
 ------------------------------------------------------------------------------
 Atomic radii for non-electrostatic terms: SMD-CDS.
 ------------------------------------------------------------------------------
 Nuclear repulsion after PCM non-electrostatic terms =       11.9226811904 Hartrees.
 One-electron integrals computed using PRISM.
 NBasis=    43 RedAO= T  NBF=    29    14
 NBsUse=    43 1.00D-06 NBFU=    29    14
 Initial guess read from the checkpoint file:  NH3.chk
 B after Tr=     0.000000    0.000000    0.000000
         Rot=    1.000000    0.000000    0.000000    0.000000 Ang=   0.00 deg.
 Initial guess orbital symmetries:
       Occupied  (A1) (A1) (E) (E) (A1)
       Virtual   (A1) (E) (E) (A1) (E) (E) (A1) (E) (E) (A1) (E)
                 (E) (A1) (A1) (E) (E) (A1) (E) (E) (A2) (A1) (E)
                 (E) (E) (E) (A1) (E) (E) (A1) (E) (E) (A1) (E)
                 (E) (A1) (E) (E) (A1)
 Requested convergence on RMS density matrix=1.00D-08 within 128 cycles.
 Requested convergence on MAX density matrix=1.00D-06.
 Requested convergence on             energy=1.00D-06.
 No special actions if energy rises.
 Keep R1 ints in memory in canonical form, NReq=3584251.
 Error on total polarization charges =  0.01953
 SCF Done:  E(RM062X) =  -56.5524385553     A.U. after    1 cycles
             Convg  =    0.6426D-09             -V/T =  2.0042
 SMD-CDS (non-electrostatic) energy             (kcal/mol) =       2.17
 (included in total energy above)
 Range of M.O.s used for correlation:     1    43
 NBasis=    43 NAE=     5 NBE=     5 NFC=     0 NFV=     0
 NROrb=     43 NOA=     5 NOB=     5 NVA=    38 NVB=    38

 **** Warning!!: The largest alpha MO coefficient is  0.10496783D+02

 Symmetrizing basis deriv contribution to polar:
 IMax=3 JMax=2 DiffMx= 0.00D+00
 G2DrvN: will do     5 centers at a time, making    1 passes doing MaxLOS=2.
 Calling FoFCou, ICntrl=  3107 FMM=F I1Cent=   0 AccDes= 0.00D+00.
 FoFDir/FoFCou used for L=0 through L=2.
 G2PCM: DoFxE=T DoFxN=T DoGrad=T DoPD/DQ/DG=FFF NFrqRd=   0 IEInf=0 DoCFld=F IF1Alg=4.
 End of G2Drv Frequency-dependent properties file   721 does not exist.
 End of G2Drv Frequency-dependent properties file   722 does not exist.
          IDoAtm=1111
 NEqPCM:  Using equilibrium solvation (IEInf=0, Eps=  78.3553, EpsInf=   1.7778)
          Differentiating once with respect to electric field.
                with respect to dipole field.
          Differentiating once with respect to nuclear coordinates.
          Keep R1 ints in memory in canonical form, NReq=1311550.
          There are     9 degrees of freedom in the 1st order CPHF.  IDoFFX=4.
      9 vectors produced by pass  0 Test12= 2.11D-15 1.11D-08 XBig12= 4.54D+00 1.26D+00.
 AX will form     9 AO Fock derivatives at one time.
      9 vectors produced by pass  1 Test12= 2.11D-15 1.11D-08 XBig12= 2.61D-01 1.92D-01.
      9 vectors produced by pass  2 Test12= 2.11D-15 1.11D-08 XBig12= 5.75D-03 4.12D-02.
      9 vectors produced by pass  3 Test12= 2.11D-15 1.11D-08 XBig12= 2.79D-05 1.90D-03.
      9 vectors produced by pass  4 Test12= 2.11D-15 1.11D-08 XBig12= 1.76D-07 1.75D-04.
      8 vectors produced by pass  5 Test12= 2.11D-15 1.11D-08 XBig12= 4.90D-10 7.14D-06.
      4 vectors produced by pass  6 Test12= 2.11D-15 1.11D-08 XBig12= 8.84D-13 3.43D-07.
      1 vectors produced by pass  7 Test12= 2.11D-15 1.11D-08 XBig12= 1.85D-15 1.51D-08.
 Inverted reduced A of dimension    58 with in-core refinement.
 Isotropic polarizability for W=    0.000000       13.47 Bohr**3.
 End of Minotr Frequency-dependent properties file   721 does not exist.
 End of Minotr Frequency-dependent properties file   722 does not exist.

 **********************************************************************

            Population analysis using the SCF density.

 **********************************************************************

 Orbital symmetries:
       Occupied  (A1) (A1) (E) (E) (A1)
       Virtual   (A1) (E) (E) (A1) (E) (E) (A1) (E) (E) (A1) (E)
                 (E) (A1) (A1) (E) (E) (A1) (E) (E) (A2) (A1) (E)
                 (E) (E) (E) (A1) (E) (E) (A1) (E) (E) (A1) (E)
                 (E) (A1) (E) (E) (A1)
 The electronic state is 1-A1.
 Alpha  occ. eigenvalues --  -14.71734  -0.94884  -0.52268  -0.52267  -0.34137
 Alpha virt. eigenvalues --    0.00532   0.04238   0.04239   0.12609   0.15648
 Alpha virt. eigenvalues --    0.15649   0.17520   0.24362   0.24363   0.25802
 Alpha virt. eigenvalues --    0.53362   0.53362   0.69694   0.82161   0.86173
 Alpha virt. eigenvalues --    0.86174   1.06198   1.17259   1.17260   1.58962
 Alpha virt. eigenvalues --    1.61615   1.73925   1.73926   1.97370   1.97370
 Alpha virt. eigenvalues --    2.34743   2.52963   2.52963   2.67375   2.69834
 Alpha virt. eigenvalues --    2.69835   2.89217   3.14734   3.14734   4.15972
 Alpha virt. eigenvalues --    4.80552   4.80552  35.72234
          Condensed to atoms (all electrons):
              1          2          3          4
     1  N    6.691226   0.375825   0.375825   0.375825
     2  H    0.375825   0.412988  -0.030856  -0.030856
     3  H    0.375825  -0.030856   0.412988  -0.030856
     4  H    0.375825  -0.030856  -0.030856   0.412988
 Mulliken atomic charges:
              1
     1  N   -0.818701
     2  H    0.272900
     3  H    0.272900
     4  H    0.272900
 Sum of Mulliken atomic charges =   0.00000
 Mulliken charges with hydrogens summed into heavy atoms:
              1
     1  N    0.000000
 Sum of Mulliken charges with hydrogens summed into heavy atoms =   0.00000
 APT atomic charges:
              1
     1  N   -0.701676
     2  H    0.233721
     3  H    0.233850
     4  H    0.233850
 Sum of APT charges=  -0.00026
 APT Atomic charges with hydrogens summed into heavy atoms:
              1
     1  N   -0.000255
     2  H    0.000000
     3  H    0.000000
     4  H    0.000000
 Sum of APT charges=  -0.00026
 Electronic spatial extent (au):  <R**2>=             27.0418
 Charge=              0.0000 electrons
 Dipole moment (field-independent basis, Debye):
    X=              0.0000    Y=              0.0000    Z=             -2.2482  Tot=              2.2482
 Quadrupole moment (field-independent basis, Debye-Ang):
   XX=             -6.2354   YY=             -6.2354   ZZ=             -9.6887
   XY=              0.0000   XZ=              0.0000   YZ=              0.0000
 Traceless Quadrupole moment (field-independent basis, Debye-Ang):
   XX=              1.1511   YY=              1.1511   ZZ=             -2.3022
   XY=              0.0000   XZ=              0.0000   YZ=              0.0000
 Octapole moment (field-independent basis, Debye-Ang**2):
  XXX=              0.0000  YYY=              1.0070  ZZZ=             -2.6305  XYY=              0.0000
  XXY=             -1.0070  XXZ=             -1.2850  XZZ=              0.0000  YZZ=              0.0000
  YYZ=             -1.2850  XYZ=              0.0000
 Hexadecapole moment (field-independent basis, Debye-Ang**3):
 XXXX=            -10.2246 YYYY=            -10.2246 ZZZZ=            -14.3526 XXXY=              0.0000
 XXXZ=              0.0000 YYYX=              0.0000 YYYZ=             -0.3857 ZZZX=              0.0000
 ZZZY=              0.0000 XXYY=             -3.4082 XXZZ=             -4.1573 YYZZ=             -4.1573
 XXYZ=              0.3857 YYXZ=              0.0000 ZZXY=              0.0000
 N-N= 1.192268119042D+01 E-N=-1.559190667919D+02  KE= 5.631465234164D+01
 Symmetry A'   KE= 5.363319413987D+01
 Symmetry A"   KE= 2.681458201773D+00
  Exact polarizability:  13.097   0.000  13.073   0.000   0.015  14.248
 Approx polarizability:  11.172   0.000  11.172   0.000   0.000  11.053
 D2PCM: PCM CHGder 2nd derivatives, FixD1E=F FixD2E=F DoIter=F DoCFld=F I1PDM=0
 Calling FoFJK, ICntrl=    100127 FMM=F ISym2X=1 I1Cent= 0 IOpClX= 0 NMat=1 NMatS=1 NMatT=0.
 Full mass-weighted force constant matrix:
 Low frequencies ---  -45.2121   -3.5718   -0.3342    0.6121   91.9813  129.1176
 Low frequencies --- 1065.9284 1620.5934 1621.4580
 Diagonal vibrational polarizability:
        0.4949639       0.4947421       6.9889901
 Harmonic frequencies (cm**-1), IR intensities (KM/Mole), Raman scattering
 activities (A**4/AMU), depolarization ratios for plane and unpolarized
 incident light, reduced masses (AMU), force constants (mDyne/A),
 and normal coordinates:
                     1                      2                      3
                    A1                      E                      E
 Frequencies --  1065.8395              1620.5928              1621.4540
 Red. masses --     1.1783                 1.0648                 1.0648
 Frc consts  --     0.7887                 1.6477                 1.6494
 IR Inten    --   294.9290                42.3337                42.3245
  Atom  AN      X      Y      Z        X      Y      Z        X      Y      Z
     1   7     0.00   0.00   0.11     0.00   0.07   0.00    -0.07   0.00   0.00
     2   1     0.00  -0.22  -0.53     0.00   0.15   0.25     0.76   0.00   0.00
     3   1     0.19   0.11  -0.53     0.39  -0.53  -0.13     0.08  -0.39   0.22
     4   1    -0.19   0.11  -0.53    -0.39  -0.53  -0.13     0.08   0.39  -0.22
                     4                      5                      6
                    ?A                     ?A                     ?A
 Frequencies --  3500.1805              3615.5384              3617.2987
 Red. masses --     1.0285                 1.0899                 1.0899
 Frc consts  --     7.4241                 8.3945                 8.4023
 IR Inten    --     1.0687                29.9884                29.6529
  Atom  AN      X      Y      Z        X      Y      Z        X      Y      Z
     1   7     0.00   0.00  -0.04     0.08   0.00   0.00     0.00   0.08   0.00
     2   1     0.00  -0.54   0.18     0.02   0.00   0.00     0.00  -0.76   0.31
     3   1     0.48   0.28   0.19    -0.56  -0.34  -0.26    -0.33  -0.17  -0.15
     4   1    -0.48   0.28   0.19    -0.56   0.34   0.26     0.33  -0.17  -0.15

 -------------------
 - Thermochemistry -
 -------------------
 Temperature   298.150 Kelvin.  Pressure   1.00000 Atm.
 Atom     1 has atomic number  7 and mass  14.00307
 Atom     2 has atomic number  1 and mass   1.00783
 Atom     3 has atomic number  1 and mass   1.00783
 Atom     4 has atomic number  1 and mass   1.00783
 Molecular mass:    17.02655 amu.
 Principal axes and moments of inertia in atomic units:
                           1         2         3
     Eigenvalues --     6.08855   6.08855   9.51773
           X            0.97523   0.22121   0.00000
           Y           -0.22121   0.97523   0.00000
           Z            0.00000   0.00000   1.00000
 This molecule is an oblate symmetric top.
 Rotational symmetry number  3.
 Rotational temperatures (Kelvin)     14.22568    14.22568     9.10026
 Rotational constants (GHZ):         296.41551   296.41551   189.61879
 Zero-point vibrational energy      89964.6 (Joules/Mol)
                                   21.50205 (Kcal/Mol)
 Vibrational temperatures:   1533.50  2331.67  2332.91  5035.97  5201.95
          (Kelvin)           5204.48
 
 Zero-point correction=                           0.034266 (Hartree/Particle)
 Thermal correction to Energy=                    0.037133
 Thermal correction to Enthalpy=                  0.038077
 Thermal correction to Gibbs Free Energy=         0.016233
 Sum of electronic and zero-point Energies=            -56.518173
 Sum of electronic and thermal Energies=               -56.515306
 Sum of electronic and thermal Enthalpies=             -56.514362
 Sum of electronic and thermal Free Energies=          -56.536206
 
                     E (Thermal)             CV                S
                      KCal/Mol        Cal/Mol-Kelvin    Cal/Mol-Kelvin
 Total                   23.301              6.370             45.975
 Electronic               0.000              0.000              0.000
 Translational            0.889              2.981             34.441
 Rotational               0.889              2.981             11.448
 Vibrational             21.524              0.408              0.086
                       Q            Log10(Q)             Ln(Q)
 Total Bot       0.341545D-07         -7.466552        -17.192372
 Total V=0       0.197034D+09          8.294542         19.098889
 Vib (Bot)       0.174500D-15        -15.758204        -36.284604
 Vib (V=0)       0.100668D+01          0.002891          0.006656
 Electronic      0.100000D+01          0.000000          0.000000
 Translational   0.276150D+07          6.441145         14.831285
 Rotational      0.708771D+02          1.850506          4.260947
 ***** Axes restored to original set *****
 -------------------------------------------------------------------
 Center     Atomic                   Forces (Hartrees/Bohr)
 Number     Number              X              Y              Z
 -------------------------------------------------------------------
      1        7           0.000000000    0.000014850   -0.000163564
      2        1           0.000000000   -0.000003099    0.000027294
      3        1           0.000020869   -0.000005875    0.000068135
      4        1          -0.000020869   -0.000005875    0.000068135
 -------------------------------------------------------------------
 Cartesian Forces:  Max     0.000163564 RMS     0.000056238

 GradGradGradGradGradGradGradGradGradGradGradGradGradGradGradGradGradGrad
 Berny optimization.
 Internal  Forces:  Max     0.000063257 RMS     0.000041903
 Search for a local minimum.
 Step number   1 out of a maximum of    2
 All quantities printed in internal units (Hartrees-Bohrs-Radians)
 Second derivative matrix not updated -- analytic derivatives used.
 The second derivative matrix:
                          R1        R2        R3        A1        A2
           R1           0.45781
           R2          -0.00113   0.45740
           R3          -0.00113  -0.00119   0.45740
           A1           0.00718   0.00714  -0.00668   0.04955
           A2           0.01722  -0.00228   0.01943  -0.03852   0.12633
           A3          -0.00275   0.01697   0.01919  -0.03852  -0.01892
           D1          -0.01459  -0.01463  -0.00964  -0.02183  -0.00420
                          A3        D1
           A3           0.12649
           D1          -0.00427   0.02853
     Eigenvalues ---    0.04279   0.13832   0.14411   0.45824   0.45998
     Eigenvalues ---    0.460061000.00000
 Angle between quadratic step and forces=  29.09 degrees.
 Linear search not attempted -- first point.
 Iteration  1 RMS(Cart)=  0.00048482 RMS(Int)=  0.00000055
 Iteration  2 RMS(Cart)=  0.00000033 RMS(Int)=  0.00000042
 ClnCor:  largest displacement from symmetrization is 1.57D-04 for atom     3.
 Variable       Old X    -DE/DX   Delta X   Delta X   Delta X     New X
                                 (Linear)    (Quad)   (Total)
    R1        1.91903  -0.00002   0.00000  -0.00014  -0.00009   1.91895
    R2        1.91903  -0.00004   0.00000  -0.00016  -0.00009   1.91895
    R3        1.91903  -0.00004   0.00000  -0.00016  -0.00009   1.91895
    A1        1.85688   0.00002   0.00000   0.00083   0.00078   1.85766
    A2        1.85688   0.00006   0.00000   0.00082   0.00078   1.85766
    A3        1.85688   0.00003   0.00000   0.00062   0.00078   1.85766
    D1       -1.97483  -0.00006   0.00000  -0.00158  -0.00158  -1.97642
         Item               Value     Threshold  Converged?
 Maximum Force            0.000063     0.000450     YES
 RMS     Force            0.000042     0.000300     YES
 Maximum Displacement     0.000958     0.001800     YES
 RMS     Displacement     0.000511     0.001200     YES
 Predicted change in Energy=-9.499263D-08
 Optimization completed.
    -- Stationary point found.
                           ----------------------------
                           !   Optimized Parameters   !
                           ! (Angstroms and Degrees)  !
 --------------------------                            --------------------------
 ! Name  Definition              Value          Derivative Info.                !
 --------------------------------------------------------------------------------
 ! R1    R(1,2)                  1.0155         -DE/DX =    0.0                 !
 ! R2    R(1,3)                  1.0155         -DE/DX =    0.0                 !
 ! R3    R(1,4)                  1.0155         -DE/DX =    0.0                 !
 ! A1    A(2,1,3)              106.3911         -DE/DX =    0.0                 !
 ! A2    A(2,1,4)              106.3911         -DE/DX =    0.0001              !
 ! A3    A(3,1,4)              106.3911         -DE/DX =    0.0                 !
 ! D1    D(2,1,4,3)           -113.1495         -DE/DX =   -0.0001              !
 --------------------------------------------------------------------------------
 GradGradGradGradGradGradGradGradGradGradGradGradGradGradGradGradGradGrad

 1|1|UNPC-DESKTOP-5V797MC|Freq|RM062X|6-311++G(d,p)|H3N1|FLAVIO|17-Jan-
 2019|0||#N Geom=AllCheck Guess=TCheck SCRF=Check GenChk RM062X/6-311++
 G(d,p) Freq||nh3_m062x.inp transition state frequencies||0,1|N,0.,0.,0
 .11609|H,-0.0000002043,0.93889,-0.270877|H,-0.8131024892,-0.4694451769
 ,-0.270877|H,0.8131026935,-0.4694448231,-0.270877||Version=IA32W-G09Re
 vA.02|State=1-A1|HF=-56.5524386|RMSD=6.426e-010|RMSF=5.624e-005|ZeroPo
 int=0.0342657|Thermal=0.0371327|Dipole=0.,0.,-0.8844928|DipoleDeriv=-0
 .6381456,0.,0.,0.,-0.6361792,-0.0026818,0.,-0.0001654,-0.8307025,0.239
 4371,0.,0.,0.,0.1846816,0.094069,0.,0.1561607,0.2770438,0.1988638,-0.0
 233778,-0.080762,-0.0230839,0.2257484,-0.0463637,-0.1351026,-0.0780389
 ,0.2769373,0.1988638,0.0233778,0.0807621,0.0230839,0.2257485,-0.046363
 7,0.1351026,-0.0780389,0.2769373|Polar=13.0967111,0.,13.0734344,0.,0.0
 147446,14.247822|PG=C03V [C3(N1),3SGV(H1)]|NImag=0||0.64435025,0.,0.64
 406082,0.,-0.00006662,0.23461606,-0.05724226,0.00000007,-0.00000003,0.
 05523659,0.00000007,-0.37224119,0.12617998,-0.00000008,0.40396917,-0.0
 0000004,0.17635843,-0.07765527,0.00000003,-0.14422627,0.07391774,-0.29
 349197,-0.13672357,-0.10881612,0.00101978,0.00237622,-0.00091247,0.316
 36383,-0.13681991,-0.13585403,-0.06302850,-0.03099826,-0.01588069,-0.0
 1606037,0.15105534,0.14237962,-0.15230115,-0.08811722,-0.07846365,0.01
 359112,0.00903675,0.00186884,0.12414901,0.07172327,0.07465466,-0.29349
 208,0.13672350,0.10881615,0.00101977,-0.00237621,0.00091248,-0.0239705
 6,0.01669770,0.01447654,0.31636397,0.13681984,-0.13585391,-0.06302846,
 0.03099827,-0.01588067,-0.01606037,-0.01669771,0.00931594,0.00732329,-
 0.15105527,0.14237949,0.15230119,-0.08811716,-0.07846365,-0.01359113,0
 .00903674,0.00186884,-0.01447655,0.00732329,0.00192334,-0.12414905,0.0
 7172321,0.07465466||0.,-0.00001485,0.00016356,0.,0.00000310,-0.0000272
 9,-0.00002087,0.00000588,-0.00006813,0.00002087,0.00000588,-0.00006813
 |||@


      TO SUSPECT YOUR OWN MORTALITY IS TO KNOW THE BEGINNING OF TERROR.
      TO LEARN IRREFUTABLY THAT YOU ARE MORTAL IS TO KNOW THE END
      OF TERROR.

                                                  -- JESSICA
                                                     CHILDREN OF DUNE
                                                     BY FRANK HERBERT
 Job cpu time:  0 days  0 hours  0 minutes 21.0 seconds.
 File lengths (MBytes):  RWF=     10 Int=      0 D2E=      0 Chk=      2 Scr=      1
 Normal termination of Gaussian 09 at Thu Jan 17 19:51:50 2019.
