 Entering Gaussian System, Link 0=g09
 Initial command:
 /public/software/g09/l1.exe /tmp/Gau-27747.inp -scrdir=/tmp/
 Entering Link 1 = /public/software/g09/l1.exe PID=     27748.
  
 Copyright (c) 1988,1990,1992,1993,1995,1998,2003,2009, Gaussian, Inc.
                  All Rights Reserved.
  
 This is part of the Gaussian(R) 09 program.  It is based on
 the Gaussian(R) 03 system (copyright 2003, Gaussian, Inc.),
 the Gaussian(R) 98 system (copyright 1998, Gaussian, Inc.),
 the Gaussian(R) 94 system (copyright 1995, Gaussian, Inc.),
 the Gaussian 92(TM) system (copyright 1992, Gaussian, Inc.),
 the Gaussian 90(TM) system (copyright 1990, Gaussian, Inc.),
 the Gaussian 88(TM) system (copyright 1988, Gaussian, Inc.),
 the Gaussian 86(TM) system (copyright 1986, Carnegie Mellon
 University), and the Gaussian 82(TM) system (copyright 1983,
 Carnegie Mellon University). Gaussian is a federally registered
 trademark of Gaussian, Inc.
  
 This software contains proprietary and confidential information,
 including trade secrets, belonging to Gaussian, Inc.
  
 This software is provided under written license and may be
 used, copied, transmitted, or stored only in accord with that
 written license.
  
 The following legend is applicable only to US Government
 contracts under FAR:
  
                    RESTRICTED RIGHTS LEGEND
  
 Use, reproduction and disclosure by the US Government is
 subject to restrictions as set forth in subparagraphs (a)
 and (c) of the Commercial Computer Software - Restricted
 Rights clause in FAR 52.227-19.
  
 Gaussian, Inc.
 340 Quinnipiac St., Bldg. 40, Wallingford CT 06492
  
  
 ---------------------------------------------------------------
 Warning -- This program may not be used in any manner that
 competes with the business of Gaussian, Inc. or will provide
 assistance to any competitor of Gaussian, Inc.  The licensee
 of this program is prohibited from giving any competitor of
 Gaussian, Inc. access to this program.  By using this program,
 the user acknowledges that Gaussian, Inc. is engaged in the
 business of creating and licensing software in the field of
 computational chemistry and represents and warrants to the
 licensee that it is not a competitor of Gaussian, Inc. and that
 it will not use this program in any manner prohibited above.
 ---------------------------------------------------------------
  

 Cite this work as:
 Gaussian 09, Revision A.02,
 M. J. Frisch, G. W. Trucks, H. B. Schlegel, G. E. Scuseria, 
 M. A. Robb, J. R. Cheeseman, G. Scalmani, V. Barone, B. Mennucci, 
 G. A. Petersson, H. Nakatsuji, M. Caricato, X. Li, H. P. Hratchian, 
 A. F. Izmaylov, J. Bloino, G. Zheng, J. L. Sonnenberg, M. Hada, 
 M. Ehara, K. Toyota, R. Fukuda, J. Hasegawa, M. Ishida, T. Nakajima, 
 Y. Honda, O. Kitao, H. Nakai, T. Vreven, J. A. Montgomery, Jr., 
 J. E. Peralta, F. Ogliaro, M. Bearpark, J. J. Heyd, E. Brothers, 
 K. N. Kudin, V. N. Staroverov, R. Kobayashi, J. Normand, 
 K. Raghavachari, A. Rendell, J. C. Burant, S. S. Iyengar, J. Tomasi, 
 M. Cossi, N. Rega, J. M. Millam, M. Klene, J. E. Knox, J. B. Cross, 
 V. Bakken, C. Adamo, J. Jaramillo, R. Gomperts, R. E. Stratmann, 
 O. Yazyev, A. J. Austin, R. Cammi, C. Pomelli, J. W. Ochterski, 
 R. L. Martin, K. Morokuma, V. G. Zakrzewski, G. A. Voth, 
 P. Salvador, J. J. Dannenberg, S. Dapprich, A. D. Daniels, 
 O. Farkas, J. B. Foresman, J. V. Ortiz, J. Cioslowski, 
 and D. J. Fox, Gaussian, Inc., Wallingford CT, 2009.
 
 ******************************************
 Gaussian 09:  EM64L-G09RevA.02 11-Jun-2009
                22-Jan-2016 
 ******************************************
 %nprocshared=8
 Will use up to    8 processors via shared memory.
 %mem=8GB
 %chk=aminophenol_react_m06.chk
 --------------------------------------------------------------
 # opt=calcfc freq m062x 6-311++g(d,p) scrf=(smd,solvent=water)
 --------------------------------------------------------------
 1/10=4,14=-1,18=20,19=15,26=3,38=1/1,3;
 2/9=110,12=2,17=6,18=5,40=1/2;
 3/5=4,6=6,7=1111,11=2,16=1,25=1,30=1,70=32201,71=2,72=1,74=-55/1,2,3;
 4//1;
 5/5=2,38=5,53=1/2;
 8/6=4,10=90,11=11/1;
 11/6=1,8=1,9=11,15=111,16=1/1,2,10;
 10/6=1,7=6,13=1/2;
 6/7=2,8=2,9=2,10=2,28=1/1;
 7/10=1,18=20,25=1/1,2,3,16;
 1/10=4,14=-1,18=20,19=15/3(2);
 2/9=110/2;
 99//99;
 2/9=110/2;
 3/5=4,6=6,7=1111,11=2,16=1,25=1,30=1,70=32205,71=1,72=1,74=-55/1,2,3;
 4/5=5,16=3/1;
 5/5=2,38=5,53=1/2;
 7//1,2,3,16;
 1/14=-1,18=20,19=15/3(-5);
 2/9=110/2;
 6/7=2,8=2,9=2,10=2,19=2,28=1/1;
 99/9=1/99;
 -----------
 aminophenol
 -----------
 Symbolic Z-matrix:
 Charge =  0 Multiplicity = 1
 C                     1.249     1.082     0.028 
 C                    -1.212    -0.261    -0.05 
 C                     1.2      -0.3       0.008 
 C                     0.059     1.78      0.009 
 C                    -1.159     1.134    -0.029 
 C                    -0.007    -0.965    -0.03 
 O                     2.415    -0.978     0.028 
 N                    -2.406    -0.922    -0.088 
 H                     2.303    -1.94      0.012 
 H                     2.197     1.571     0.058 
 H                     0.081     2.852     0.025 
 H                    -2.068     1.701    -0.043 
 H                    -3.269    -0.422    -0.102 
 H                    -2.448    -1.918    -0.103 
 H                    -0.026    -2.038    -0.046 
 

 GradGradGradGradGradGradGradGradGradGradGradGradGradGradGradGradGradGrad
 Berny optimization.
 Initialization pass.
                           ----------------------------
                           !    Initial Parameters    !
                           ! (Angstroms and Degrees)  !
 --------------------------                            --------------------------
 ! Name  Definition              Value          Derivative Info.                !
 --------------------------------------------------------------------------------
 ! R1    R(1,3)                  1.383          calculate D2E/DX2 analytically  !
 ! R2    R(1,4)                  1.3797         calculate D2E/DX2 analytically  !
 ! R3    R(1,10)                 1.0671         calculate D2E/DX2 analytically  !
 ! R4    R(2,5)                  1.3962         calculate D2E/DX2 analytically  !
 ! R5    R(2,6)                  1.3957         calculate D2E/DX2 analytically  !
 ! R6    R(2,8)                  1.3653         calculate D2E/DX2 analytically  !
 ! R7    R(3,6)                  1.3786         calculate D2E/DX2 analytically  !
 ! R8    R(3,7)                  1.3915         calculate D2E/DX2 analytically  !
 ! R9    R(4,5)                  1.3792         calculate D2E/DX2 analytically  !
 ! R10   R(4,11)                 1.0723         calculate D2E/DX2 analytically  !
 ! R11   R(5,12)                 1.0714         calculate D2E/DX2 analytically  !
 ! R12   R(6,15)                 1.0733         calculate D2E/DX2 analytically  !
 ! R13   R(7,9)                  0.9686         calculate D2E/DX2 analytically  !
 ! R14   R(8,13)                 0.9975         calculate D2E/DX2 analytically  !
 ! R15   R(8,14)                 0.997          calculate D2E/DX2 analytically  !
 ! A1    A(3,1,4)              118.3442         calculate D2E/DX2 analytically  !
 ! A2    A(3,1,10)             119.327          calculate D2E/DX2 analytically  !
 ! A3    A(4,1,10)             122.3288         calculate D2E/DX2 analytically  !
 ! A4    A(5,2,6)              118.0985         calculate D2E/DX2 analytically  !
 ! A5    A(5,2,8)              121.1555         calculate D2E/DX2 analytically  !
 ! A6    A(6,2,8)              120.7461         calculate D2E/DX2 analytically  !
 ! A7    A(1,3,6)              120.8933         calculate D2E/DX2 analytically  !
 ! A8    A(1,3,7)              117.1125         calculate D2E/DX2 analytically  !
 ! A9    A(6,3,7)              121.9942         calculate D2E/DX2 analytically  !
 ! A10   A(1,4,5)              121.6743         calculate D2E/DX2 analytically  !
 ! A11   A(1,4,11)             119.1982         calculate D2E/DX2 analytically  !
 ! A12   A(5,4,11)             119.1275         calculate D2E/DX2 analytically  !
 ! A13   A(2,5,4)              120.1273         calculate D2E/DX2 analytically  !
 ! A14   A(2,5,12)             119.7591         calculate D2E/DX2 analytically  !
 ! A15   A(4,5,12)             120.1136         calculate D2E/DX2 analytically  !
 ! A16   A(2,6,3)              120.8623         calculate D2E/DX2 analytically  !
 ! A17   A(2,6,15)             119.2595         calculate D2E/DX2 analytically  !
 ! A18   A(3,6,15)             119.8781         calculate D2E/DX2 analytically  !
 ! A19   A(3,7,9)              112.5015         calculate D2E/DX2 analytically  !
 ! A20   A(2,8,13)             120.9535         calculate D2E/DX2 analytically  !
 ! A21   A(2,8,14)             121.3942         calculate D2E/DX2 analytically  !
 ! A22   A(13,8,14)            117.6522         calculate D2E/DX2 analytically  !
 ! D1    D(4,1,3,6)              0.0012         calculate D2E/DX2 analytically  !
 ! D2    D(4,1,3,7)           -179.9941         calculate D2E/DX2 analytically  !
 ! D3    D(10,1,3,6)           179.9626         calculate D2E/DX2 analytically  !
 ! D4    D(10,1,3,7)            -0.0327         calculate D2E/DX2 analytically  !
 ! D5    D(3,1,4,5)             -0.001          calculate D2E/DX2 analytically  !
 ! D6    D(3,1,4,11)           179.9468         calculate D2E/DX2 analytically  !
 ! D7    D(10,1,4,5)          -179.9611         calculate D2E/DX2 analytically  !
 ! D8    D(10,1,4,11)           -0.0133         calculate D2E/DX2 analytically  !
 ! D9    D(6,2,5,4)              0.0658         calculate D2E/DX2 analytically  !
 ! D10   D(6,2,5,12)          -179.9643         calculate D2E/DX2 analytically  !
 ! D11   D(8,2,5,4)           -179.9825         calculate D2E/DX2 analytically  !
 ! D12   D(8,2,5,12)            -0.0127         calculate D2E/DX2 analytically  !
 ! D13   D(5,2,6,3)             -0.0661         calculate D2E/DX2 analytically  !
 ! D14   D(5,2,6,15)          -179.9763         calculate D2E/DX2 analytically  !
 ! D15   D(8,2,6,3)            179.982          calculate D2E/DX2 analytically  !
 ! D16   D(8,2,6,15)             0.0719         calculate D2E/DX2 analytically  !
 ! D17   D(5,2,8,13)             0.0242         calculate D2E/DX2 analytically  !
 ! D18   D(5,2,8,14)          -179.9937         calculate D2E/DX2 analytically  !
 ! D19   D(6,2,8,13)           179.9746         calculate D2E/DX2 analytically  !
 ! D20   D(6,2,8,14)            -0.0434         calculate D2E/DX2 analytically  !
 ! D21   D(1,3,6,2)              0.0333         calculate D2E/DX2 analytically  !
 ! D22   D(1,3,6,15)           179.9429         calculate D2E/DX2 analytically  !
 ! D23   D(7,3,6,2)           -179.9717         calculate D2E/DX2 analytically  !
 ! D24   D(7,3,6,15)            -0.0621         calculate D2E/DX2 analytically  !
 ! D25   D(1,3,7,9)           -179.9869         calculate D2E/DX2 analytically  !
 ! D26   D(6,3,7,9)              0.0178         calculate D2E/DX2 analytically  !
 ! D27   D(1,4,5,2)             -0.0335         calculate D2E/DX2 analytically  !
 ! D28   D(1,4,5,12)           179.9968         calculate D2E/DX2 analytically  !
 ! D29   D(11,4,5,2)          -179.9813         calculate D2E/DX2 analytically  !
 ! D30   D(11,4,5,12)            0.0489         calculate D2E/DX2 analytically  !
 --------------------------------------------------------------------------------
 Trust Radius=3.00D-01 FncErr=1.00D-07 GrdErr=1.00D-06
 Number of steps in this run=  77 maximum allowed number of steps= 100.
 GradGradGradGradGradGradGradGradGradGradGradGradGradGradGradGradGradGrad

                          Input orientation:                          
 ---------------------------------------------------------------------
 Center     Atomic      Atomic             Coordinates (Angstroms)
 Number     Number       Type             X           Y           Z
 ---------------------------------------------------------------------
      1          6           0        1.249000    1.082000    0.028000
      2          6           0       -1.212000   -0.261000   -0.050000
      3          6           0        1.200000   -0.300000    0.008000
      4          6           0        0.059000    1.780000    0.009000
      5          6           0       -1.159000    1.134000   -0.029000
      6          6           0       -0.007000   -0.965000   -0.030000
      7          8           0        2.415000   -0.978000    0.028000
      8          7           0       -2.406000   -0.922000   -0.088000
      9          1           0        2.303000   -1.940000    0.012000
     10          1           0        2.197000    1.571000    0.058000
     11          1           0        0.081000    2.852000    0.025000
     12          1           0       -2.068000    1.701000   -0.043000
     13          1           0       -3.269000   -0.422000   -0.102000
     14          1           0       -2.448000   -1.918000   -0.103000
     15          1           0       -0.026000   -2.038000   -0.046000
 ---------------------------------------------------------------------
                    Distance matrix (angstroms):
                    1          2          3          4          5
     1  C    0.000000
     2  C    2.804684   0.000000
     3  C    1.383013   2.413012   0.000000
     4  C    1.379734   2.405120   2.372400   0.000000
     5  C    2.409236   1.396164   2.760907   1.379233   0.000000
     6  C    2.402313   1.395722   1.378593   2.746070   2.394349
     7  O    2.367099   3.698013   1.391513   3.627349   4.151779
     8  N    4.169952   1.365284   3.660510   3.658748   2.405333
     9  H    3.200571   3.895909   1.976417   4.344415   4.629968
    10  H    1.067111   3.871585   2.120648   2.148750   3.385450
    11  H    2.120644   3.371683   3.344780   1.072345   2.119443
    12  H    3.375010   2.140614   3.832287   2.129102   1.071432
    13  H    4.763532   2.063946   4.472018   3.992081   2.622702
    14  H    4.762874   2.067886   3.992261   4.469094   3.313865
    15  H    3.371276   2.136432   2.127589   3.819342   3.368317
                    6          7          8          9         10
     6  C    0.000000
     7  O    2.422729   0.000000
     8  N    2.400086   4.822720   0.000000
     9  H    2.507686   0.968630   4.818818   0.000000
    10  H    3.361050   2.558481   5.236790   3.512901   0.000000
    11  H    3.818410   4.485138   4.521174   5.282113   2.473764
    12  H    3.369784   5.222966   2.645071   5.689073   4.268176
    13  H    3.307669   5.712608   0.997479   5.776202   5.820207
    14  H    2.621454   4.954748   0.996998   4.752443   5.811632
    15  H    1.073287   2.662247   2.628996   2.331782   4.239979
                   11         12         13         14         15
    11  H    0.000000
    12  H    2.438776   0.000000
    13  H    4.685905   2.439879   0.000000
    14  H    5.400475   3.639390   1.706475   0.000000
    15  H    4.891686   4.260269   3.623761   2.425641   0.000000
 Stoichiometry    C6H7NO
 Framework group  C1[X(C6H7NO)]
 Deg. of freedom    39
 Full point group                 C1      NOp   1
 Largest Abelian subgroup         C1      NOp   1
 Largest concise Abelian subgroup C1      NOp   1
                         Standard orientation:                         
 ---------------------------------------------------------------------
 Center     Atomic      Atomic             Coordinates (Angstroms)
 Number     Number       Type             X           Y           Z
 ---------------------------------------------------------------------
      1          6           0        1.236301    1.090935   -0.000287
      2          6           0       -1.209657   -0.281488   -0.000158
      3          6           0        1.203334   -0.291685    0.000021
      4          6           0        0.037942    1.774747   -0.000152
      5          6           0       -1.172822    1.114191    0.000257
      6          6           0        0.003793   -0.971111    0.000427
      7          8           0        2.426470   -0.955197    0.000004
      8          7           0       -2.396250   -0.956763   -0.000121
      9          1           0        2.325608   -1.918561    0.000025
     10          1           0        2.178844    1.591273    0.000008
     11          1           0        0.047522    2.847049    0.000482
     12          1           0       -2.088599    1.670355    0.000406
     13          1           0       -3.265244   -0.467054   -0.000159
     14          1           0       -2.426707   -1.953296   -0.000323
     15          1           0       -0.002777   -2.044378   -0.000266
 ---------------------------------------------------------------------
 Rotational constants (GHZ):      3.7949911      1.8335636      1.2362601
 Standard basis: 6-311++G(d,p) (5D, 7F)
 There are   225 symmetry adapted basis functions of A   symmetry.
 Integral buffers will be    131072 words long.
 Raffenetti 2 integral format.
 Two-electron integral symmetry is turned on.
   225 basis functions,   351 primitive gaussians,   233 cartesian basis functions
    29 alpha electrons       29 beta electrons
       nuclear repulsion energy       347.7354822562 Hartrees.
 NAtoms=   15 NActive=   15 NUniq=   15 SFac= 7.50D-01 NAtFMM=   80 NAOKFM=F Big=F
 ------------------------------------------------------------------------------
 Polarizable Continuum Model (PCM)
 =================================
 Model                : PCM.
 Atomic radii         : SMD-Coulomb.
 Polarization charges : Total charges.
 Charge compensation  : None.
 Solution method      : Matrix inversion.
 Cavity type          : VdW (van der Waals Surface) (Alpha=1.000).
 Cavity algorithm     : GePol (No added spheres)
                        Default sphere list used, NSphG=   15.
                        Lebedev-Laikov grids with approx.  5.0 points / Ang**2.
                        Smoothing algorithm: Karplus/York (Gamma=1.0000).
                        Polarization charges: spherical gaussians, with
                                              point-specific exponents (IZeta= 3).
                        Self-potential: point-specific (ISelfS= 7).
                        Self-field    : sphere-specific E.n sum rule (ISelfD= 2).
 1st derivatives      : Analytical E(r).r(x)/FMM algorithm (CHGder, D1EAlg=3).
                        Cavity 1st derivative terms included.
 2nd derivatives      : Analytical E(r).r(xy)/FMM algorithm (CHGder, D2EAlg=3).
                        Cavity 2nd derivative terms included.
 Solvent              : Water, Eps=  78.355300 Eps(inf)=   1.777849
 ------------------------------------------------------------------------------
 Spheres list:
 ISph  on   Nord    Re0     Alpha      Xe            Ye            Ze
    1   C      1    1.850   1.000      1.236301      1.090935     -0.000287
    2   C      2    1.850   1.000     -1.209657     -0.281488     -0.000158
    3   C      3    1.850   1.000      1.203334     -0.291685      0.000021
    4   C      4    1.850   1.000      0.037942      1.774747     -0.000152
    5   C      5    1.850   1.000     -1.172822      1.114191      0.000257
    6   C      6    1.850   1.000      0.003793     -0.971111      0.000427
    7   O      7    1.520   1.000      2.426470     -0.955197      0.000004
    8   N      8    1.890   1.000     -2.396250     -0.956763     -0.000121
    9   H      9    1.200   1.000      2.325608     -1.918561      0.000025
   10   H     10    1.200   1.000      2.178844      1.591273      0.000008
   11   H     11    1.200   1.000      0.047522      2.847049      0.000482
   12   H     12    1.200   1.000     -2.088599      1.670355      0.000406
   13   H     13    1.200   1.000     -3.265244     -0.467054     -0.000159
   14   H     14    1.200   1.000     -2.426707     -1.953296     -0.000323
   15   H     15    1.200   1.000     -0.002777     -2.044378     -0.000266
 ------------------------------------------------------------------------------
 ------------------------------------------------------------------------------
 Atomic radii for non-electrostatic terms: SMD-CDS.
 ------------------------------------------------------------------------------
 Nuclear repulsion after PCM non-electrostatic terms =      347.7410164486 Hartrees.
 One-electron integrals computed using PRISM.
 NBasis=   225 RedAO= T  NBF=   225
 NBsUse=   224 1.00D-06 NBFU=   224
 Harris functional with IExCor= 1009 diagonalized for initial guess.
 ExpMin= 3.60D-02 ExpMax= 8.59D+03 ExpMxC= 1.30D+03 IAcc=3 IRadAn=         0 AccDes= 0.00D+00
 HarFok:  IExCor= 1009 AccDes= 0.00D+00 IRadAn=         0 IDoV= 1
 ScaDFX=  1.000000  1.000000  1.000000  1.000000
 FoFCou: FMM=F IPFlag=           0 FMFlag=      100000 FMFlg1=           0
         NFxFlg=           0 DoJE=T BraDBF=F KetDBF=T FulRan=T
         Omega=  0.000000  0.000000  1.000000  0.000000  0.000000 ICntrl=     500 IOpCl=  0
         NMat0=    1 NMatS0=    1 NMatT0=    0 NMatD0=    1 NMtDS0=    0 NMtDT0=    0
         I1Cent=           4 NGrid=           0.
 Petite list used in FoFCou.
 Initial guess orbital symmetries:
       Occupied  (A) (A) (A) (A) (A) (A) (A) (A) (A) (A) (A) (A)
                 (A) (A) (A) (A) (A) (A) (A) (A) (A) (A) (A) (A)
                 (A) (A) (A) (A) (A)
       Virtual   (A) (A) (A) (A) (A) (A) (A) (A) (A) (A) (A) (A)
                 (A) (A) (A) (A) (A) (A) (A) (A) (A) (A) (A) (A)
                 (A) (A) (A) (A) (A) (A) (A) (A) (A) (A) (A) (A)
                 (A) (A) (A) (A) (A) (A) (A) (A) (A) (A) (A) (A)
                 (A) (A) (A) (A) (A) (A) (A) (A) (A) (A) (A) (A)
                 (A) (A) (A) (A) (A) (A) (A) (A) (A) (A) (A) (A)
                 (A) (A) (A) (A) (A) (A) (A) (A) (A) (A) (A) (A)
                 (A) (A) (A) (A) (A) (A) (A) (A) (A) (A) (A) (A)
                 (A) (A) (A) (A) (A) (A) (A) (A) (A) (A) (A) (A)
                 (A) (A) (A) (A) (A) (A) (A) (A) (A) (A) (A) (A)
                 (A) (A) (A) (A) (A) (A) (A) (A) (A) (A) (A) (A)
                 (A) (A) (A) (A) (A) (A) (A) (A) (A) (A) (A) (A)
                 (A) (A) (A) (A) (A) (A) (A) (A) (A) (A) (A) (A)
                 (A) (A) (A) (A) (A) (A) (A) (A) (A) (A) (A) (A)
                 (A) (A) (A) (A) (A) (A) (A) (A) (A) (A) (A) (A)
                 (A) (A) (A) (A) (A) (A) (A) (A) (A) (A) (A) (A)
                 (A) (A) (A)
 The electronic state of the initial guess is 1-A.
 Requested convergence on RMS density matrix=1.00D-08 within 128 cycles.
 Requested convergence on MAX density matrix=1.00D-06.
 Requested convergence on             energy=1.00D-06.
 No special actions if energy rises.
 Keep R1 ints in memory in canonical form, NReq=378316383.
 Error on total polarization charges =  0.04343
 SCF Done:  E(RM062X) =  -362.792685858     A.U. after   14 cycles
             Convg  =    0.3375D-08             -V/T =  2.0033
 SMD-CDS (non-electrostatic) energy             (kcal/mol) =       3.47
 (included in total energy above)
 Range of M.O.s used for correlation:     1   224
 NBasis=   225 NAE=    29 NBE=    29 NFC=     0 NFV=     0
 NROrb=    224 NOA=    29 NOB=    29 NVA=   195 NVB=   195

 **** Warning!!: The largest alpha MO coefficient is  0.15958452D+03

 Symmetrizing basis deriv contribution to polar:
 IMax=3 JMax=2 DiffMx= 0.00D+00
 G2DrvN: will do    16 centers at a time, making    1 passes doing MaxLOS=2.
 Calling FoFCou, ICntrl=  3107 FMM=F I1Cent=   0 AccDes= 0.00D+00.
 FoFDir/FoFCou used for L=0 through L=2.
 G2PCM: DoFxE=T DoFxN=T DoGrad=T DoPD/DQ/DG=FFF NFrqRd=   0 IEInf=0 DoCFld=F IF1Alg=4.
 End of G2Drv Frequency-dependent properties file   721 does not exist.
 End of G2Drv Frequency-dependent properties file   722 does not exist.
          IDoAtm=111111111111111
 NEqPCM:  Using equilibrium solvation (IEInf=0, Eps=  78.3553, EpsInf=   1.7778)
          Differentiating once with respect to nuclear coordinates.
          Keep R1 ints in memory in canonical form, NReq=372419625.
          There are    48 degrees of freedom in the 1st order CPHF.  IDoFFX=5.
     42 vectors produced by pass  0 Test12= 1.18D-10 2.08D-07 XBig12= 1.52D-01 1.60D-01.
 AX will form    42 AO Fock derivatives at one time.
     42 vectors produced by pass  1 Test12= 1.18D-10 2.08D-07 XBig12= 2.27D-02 4.87D-02.
     42 vectors produced by pass  2 Test12= 1.18D-10 2.08D-07 XBig12= 5.26D-04 7.29D-03.
     42 vectors produced by pass  3 Test12= 1.18D-10 2.08D-07 XBig12= 3.85D-06 4.32D-04.
     41 vectors produced by pass  4 Test12= 1.18D-10 2.08D-07 XBig12= 1.97D-08 2.11D-05.
     20 vectors produced by pass  5 Test12= 1.18D-10 2.08D-07 XBig12= 8.89D-11 1.58D-06.
 Inverted reduced A of dimension   229 with in-core refinement.
 End of Minotr Frequency-dependent properties file   721 does not exist.
 End of Minotr Frequency-dependent properties file   722 does not exist.

 **********************************************************************

            Population analysis using the SCF density.

 **********************************************************************

 Orbital symmetries:
       Occupied  (A) (A) (A) (A) (A) (A) (A) (A) (A) (A) (A) (A)
                 (A) (A) (A) (A) (A) (A) (A) (A) (A) (A) (A) (A)
                 (A) (A) (A) (A) (A)
       Virtual   (A) (A) (A) (A) (A) (A) (A) (A) (A) (A) (A) (A)
                 (A) (A) (A) (A) (A) (A) (A) (A) (A) (A) (A) (A)
                 (A) (A) (A) (A) (A) (A) (A) (A) (A) (A) (A) (A)
                 (A) (A) (A) (A) (A) (A) (A) (A) (A) (A) (A) (A)
                 (A) (A) (A) (A) (A) (A) (A) (A) (A) (A) (A) (A)
                 (A) (A) (A) (A) (A) (A) (A) (A) (A) (A) (A) (A)
                 (A) (A) (A) (A) (A) (A) (A) (A) (A) (A) (A) (A)
                 (A) (A) (A) (A) (A) (A) (A) (A) (A) (A) (A) (A)
                 (A) (A) (A) (A) (A) (A) (A) (A) (A) (A) (A) (A)
                 (A) (A) (A) (A) (A) (A) (A) (A) (A) (A) (A) (A)
                 (A) (A) (A) (A) (A) (A) (A) (A) (A) (A) (A) (A)
                 (A) (A) (A) (A) (A) (A) (A) (A) (A) (A) (A) (A)
                 (A) (A) (A) (A) (A) (A) (A) (A) (A) (A) (A) (A)
                 (A) (A) (A) (A) (A) (A) (A) (A) (A) (A) (A) (A)
                 (A) (A) (A) (A) (A) (A) (A) (A) (A) (A) (A) (A)
                 (A) (A) (A) (A) (A) (A) (A) (A) (A) (A) (A) (A)
                 (A) (A) (A)
 The electronic state is 1-A.
 Alpha  occ. eigenvalues --  -19.64980 -14.74480 -10.60451 -10.58825 -10.53936
 Alpha  occ. eigenvalues --  -10.52906 -10.52440 -10.52256  -1.17297  -1.03216
 Alpha  occ. eigenvalues --   -0.94471  -0.84063  -0.82677  -0.71192  -0.68833
 Alpha  occ. eigenvalues --   -0.63047  -0.60008  -0.56058  -0.54833  -0.51495
 Alpha  occ. eigenvalues --   -0.49507  -0.49184  -0.45993  -0.44435  -0.42453
 Alpha  occ. eigenvalues --   -0.40890  -0.37052  -0.29316  -0.25301
 Alpha virt. eigenvalues --    0.00445   0.01624   0.01692   0.02629   0.03586
 Alpha virt. eigenvalues --    0.03887   0.04218   0.05682   0.06600   0.07044
 Alpha virt. eigenvalues --    0.07545   0.09564   0.10028   0.10494   0.12433
 Alpha virt. eigenvalues --    0.13070   0.13284   0.13787   0.13854   0.14028
 Alpha virt. eigenvalues --    0.14639   0.15133   0.15174   0.15413   0.16896
 Alpha virt. eigenvalues --    0.18693   0.19219   0.19600   0.19601   0.20118
 Alpha virt. eigenvalues --    0.20534   0.21952   0.22744   0.24793   0.24814
 Alpha virt. eigenvalues --    0.24926   0.26188   0.27320   0.28446   0.28795
 Alpha virt. eigenvalues --    0.30035   0.30274   0.31650   0.32534   0.34191
 Alpha virt. eigenvalues --    0.34648   0.35060   0.36418   0.38325   0.40298
 Alpha virt. eigenvalues --    0.41128   0.42687   0.46498   0.48104   0.53563
 Alpha virt. eigenvalues --    0.55114   0.56437   0.59631   0.60283   0.60601
 Alpha virt. eigenvalues --    0.60902   0.62087   0.63929   0.65555   0.65833
 Alpha virt. eigenvalues --    0.66403   0.67324   0.68631   0.72862   0.73647
 Alpha virt. eigenvalues --    0.74662   0.77982   0.79518   0.82686   0.83269
 Alpha virt. eigenvalues --    0.84767   0.88658   0.88692   0.89840   0.91681
 Alpha virt. eigenvalues --    0.92712   0.93677   0.94710   0.95368   0.96417
 Alpha virt. eigenvalues --    0.96919   1.04584   1.04633   1.05305   1.05547
 Alpha virt. eigenvalues --    1.13143   1.15255   1.16668   1.17497   1.20422
 Alpha virt. eigenvalues --    1.21735   1.24867   1.28223   1.28999   1.30142
 Alpha virt. eigenvalues --    1.34972   1.45882   1.47808   1.52639   1.57258
 Alpha virt. eigenvalues --    1.58875   1.60384   1.62025   1.63379   1.65488
 Alpha virt. eigenvalues --    1.66152   1.66722   1.71137   1.74779   1.75541
 Alpha virt. eigenvalues --    1.75969   1.80928   1.82283   1.84483   1.90710
 Alpha virt. eigenvalues --    1.94112   1.96527   1.97290   1.97592   2.00122
 Alpha virt. eigenvalues --    2.01131   2.01580   2.04393   2.04981   2.09081
 Alpha virt. eigenvalues --    2.13381   2.16434   2.20480   2.24877   2.27046
 Alpha virt. eigenvalues --    2.32839   2.38237   2.47921   2.51459   2.54873
 Alpha virt. eigenvalues --    2.55503   2.56191   2.58462   2.60757   2.67038
 Alpha virt. eigenvalues --    2.71041   2.71564   2.74726   2.75274   2.77299
 Alpha virt. eigenvalues --    2.78189   2.80901   2.83046   2.86946   2.87378
 Alpha virt. eigenvalues --    2.91149   2.95247   2.96692   2.98264   3.01695
 Alpha virt. eigenvalues --    3.12283   3.14032   3.15550   3.16628   3.24095
 Alpha virt. eigenvalues --    3.26491   3.39258   3.42421   3.47758   3.50910
 Alpha virt. eigenvalues --    3.52958   3.59867   3.69122   3.72437   3.96264
 Alpha virt. eigenvalues --    3.97042   3.97936   4.08937   4.17790   4.20994
 Alpha virt. eigenvalues --    4.21532   4.88236   4.90002   5.12141   5.13185
 Alpha virt. eigenvalues --    5.52326   5.84733  23.68720  24.03056  24.07052
 Alpha virt. eigenvalues --   24.19506  24.21699  24.31732  35.79067  50.04332
          Condensed to atoms (all electrons):
              1          2          3          4          5          6
     1  C    8.261634   0.597600   0.326176  -0.105881  -0.144100  -2.661591
     2  C    0.597600   6.804849   0.094631  -0.274607   0.310295  -0.855638
     3  C    0.326176   0.094631   6.469155  -0.358067   0.763676  -1.352246
     4  C   -0.105881  -0.274607  -0.358067   5.418330  -0.175357   1.316596
     5  C   -0.144100   0.310295   0.763676  -0.175357   7.541930  -2.325209
     6  C   -2.661591  -0.855638  -1.352246   1.316596  -2.325209  11.128186
     7  O   -0.456784  -0.012960   0.397870  -0.001669   0.052933   0.044761
     8  N    0.053651  -0.098376   0.027583   0.012327  -0.173318   0.001867
     9  H    0.100849   0.006935   0.065348  -0.010536   0.003811  -0.175753
    10  H    0.603139   0.021774  -0.101918  -0.063921   0.016901  -0.135475
    11  H   -0.128755   0.026173  -0.007074   0.442692  -0.134358   0.122892
    12  H    0.006065  -0.137461   0.030940  -0.050601   0.612058  -0.122810
    13  H    0.002492  -0.036834  -0.004544   0.010134  -0.034753   0.039600
    14  H    0.001678  -0.029692   0.007489  -0.006585   0.030839  -0.028481
    15  H   -0.046054  -0.128322  -0.148488   0.034386  -0.118666   0.743597
              7          8          9         10         11         12
     1  C   -0.456784   0.053651   0.100849   0.603139  -0.128755   0.006065
     2  C   -0.012960  -0.098376   0.006935   0.021774   0.026173  -0.137461
     3  C    0.397870   0.027583   0.065348  -0.101918  -0.007074   0.030940
     4  C   -0.001669   0.012327  -0.010536  -0.063921   0.442692  -0.050601
     5  C    0.052933  -0.173318   0.003811   0.016901  -0.134358   0.612058
     6  C    0.044761   0.001867  -0.175753  -0.135475   0.122892  -0.122810
     7  O    8.097525  -0.002250   0.295205  -0.025965   0.000033   0.000948
     8  N   -0.002250   6.916788  -0.000614   0.000288  -0.002745  -0.006498
     9  H    0.295205  -0.000614   0.366243   0.004013  -0.000452   0.000336
    10  H   -0.025965   0.000288   0.004013   0.457846  -0.011109   0.001805
    11  H    0.000033  -0.002745  -0.000452  -0.011109   0.448070  -0.012538
    12  H    0.000948  -0.006498   0.000336   0.001805  -0.012538   0.466411
    13  H   -0.000270   0.377700  -0.000038  -0.000022   0.001082  -0.004988
    14  H    0.000607   0.379830   0.000351   0.000164  -0.000469   0.003366
    15  H   -0.016508  -0.003044  -0.004320  -0.001361   0.003281  -0.003857
             13         14         15
     1  C    0.002492   0.001678  -0.046054
     2  C   -0.036834  -0.029692  -0.128322
     3  C   -0.004544   0.007489  -0.148488
     4  C    0.010134  -0.006585   0.034386
     5  C   -0.034753   0.030839  -0.118666
     6  C    0.039600  -0.028481   0.743597
     7  O   -0.000270   0.000607  -0.016508
     8  N    0.377700   0.379830  -0.003044
     9  H   -0.000038   0.000351  -0.004320
    10  H   -0.000022   0.000164  -0.001361
    11  H    0.001082  -0.000469   0.003281
    12  H   -0.004988   0.003366  -0.003857
    13  H    0.333341  -0.014327   0.003929
    14  H   -0.014327   0.334607  -0.005304
    15  H    0.003929  -0.005304   0.476823
 Mulliken atomic charges:
              1
     1  C   -0.410117
     2  C   -0.288368
     3  C   -0.210531
     4  C   -0.187241
     5  C   -0.226680
     6  C    0.259704
     7  O   -0.373477
     8  N   -0.483187
     9  H    0.348622
    10  H    0.233842
    11  H    0.253278
    12  H    0.216824
    13  H    0.327498
    14  H    0.325926
    15  H    0.213907
 Sum of Mulliken atomic charges =   0.00000
 Mulliken charges with hydrogens summed into heavy atoms:
              1
     1  C   -0.176275
     2  C   -0.288368
     3  C   -0.210531
     4  C    0.066037
     5  C   -0.009857
     6  C    0.473611
     7  O   -0.024855
     8  N    0.170237
 Sum of Mulliken charges with hydrogens summed into heavy atoms =   0.00000
 APT atomic charges:
              1
     1  C   -0.609199
     2  C    0.226330
     3  C   -0.234031
     4  C   -0.502433
     5  C   -0.707304
     6  C   -0.531158
     7  O   -0.728421
     8  N   -1.358807
     9  H    0.706988
    10  H    0.587296
    11  H    0.627563
    12  H    0.573006
    13  H    0.797058
    14  H    0.681833
    15  H    0.471278
 Sum of APT charges=   0.00000
 APT Atomic charges with hydrogens summed into heavy atoms:
              1
     1  C   -0.021903
     2  C    0.226330
     3  C   -0.234031
     4  C    0.125130
     5  C   -0.134298
     6  C   -0.059880
     7  O   -0.021433
     8  N    0.120084
     9  H    0.000000
    10  H    0.000000
    11  H    0.000000
    12  H    0.000000
    13  H    0.000000
    14  H    0.000000
    15  H    0.000000
 Sum of APT charges=   0.00000
 Electronic spatial extent (au):  <R**2>=            926.5437
 Charge=              0.0000 electrons
 Dipole moment (field-independent basis, Debye):
    X=             -3.6144    Y=             -2.8067    Z=             -0.0006  Tot=              4.5762
 Quadrupole moment (field-independent basis, Debye-Ang):
   XX=            -42.1306   YY=            -34.1830   ZZ=            -53.5197
   XY=             -0.3401   XZ=              0.0024   YZ=              0.0054
 Traceless Quadrupole moment (field-independent basis, Debye-Ang):
   XX=              1.1472   YY=              9.0948   ZZ=            -10.2419
   XY=             -0.3401   XZ=              0.0024   YZ=              0.0054
 Octapole moment (field-independent basis, Debye-Ang**2):
  XXX=            -49.6198  YYY=            -25.9718  ZZZ=             -0.0007  XYY=              5.2862
  XXY=            -11.5128  XXZ=             -0.0007  XZZ=              3.2318  YZZ=             -4.0676
  YYZ=              0.0020  XYZ=             -0.0024
 Hexadecapole moment (field-independent basis, Debye-Ang**3):
 XXXX=           -658.3501 YYYY=           -324.0731 ZZZZ=            -62.2999 XXXY=              8.7151
 XXXZ=              0.0158 YYYX=            -14.4988 YYYZ=              0.0350 ZZZX=              0.0034
 ZZZY=              0.0075 XXYY=           -134.9986 XXZZ=           -149.9170 YYZZ=            -90.0573
 XXYZ=              0.0125 YYXZ=              0.0065 ZZXY=             -4.5644
 N-N= 3.477410164486D+02 E-N=-1.541982449392D+03  KE= 3.615894973021D+02
  Exact polarizability:   0.000   0.000   0.000   0.000   0.000   0.000
 Approx polarizability: 126.900   5.097 111.621  -0.004  -0.007  62.090
 D2PCM: PCM CHGder 2nd derivatives, FixD1E=F FixD2E=F DoIter=F DoCFld=F I1PDM=0
 Calling FoFJK, ICntrl=    100147 FMM=F ISym2X=0 I1Cent= 0 IOpClX= 0 NMat=1 NMatS=1 NMatT=0.
 ***** Axes restored to original set *****
 -------------------------------------------------------------------
 Center     Atomic                   Forces (Hartrees/Bohr)
 Number     Number              X              Y              Z
 -------------------------------------------------------------------
      1        6           0.004399117   -0.001914820    0.000105400
      2        6          -0.000068022    0.000657797    0.000115259
      3        6           0.012165999   -0.010864843    0.000142687
      4        6          -0.001180791    0.001236181    0.000058212
      5        6          -0.002485720    0.000828522   -0.000114526
      6        6          -0.000787644   -0.007314510   -0.000230926
      7        8          -0.005918575    0.004411729   -0.000080223
      8        7           0.002222986    0.001366074    0.000059403
      9        1          -0.005138300    0.004896865   -0.000055057
     10        1           0.009583773    0.006429246    0.000303807
     11        1           0.000026344    0.008516615    0.000092294
     12        1          -0.008268802    0.004310135   -0.000137689
     13        1          -0.006654216    0.005702431   -0.000087461
     14        1           0.001403067   -0.009009856   -0.000092355
     15        1           0.000700784   -0.009251566   -0.000078826
 -------------------------------------------------------------------
 Cartesian Forces:  Max     0.012165999 RMS     0.004723622

 GradGradGradGradGradGradGradGradGradGradGradGradGradGradGradGradGradGrad
 Berny optimization.
 Internal  Forces:  Max     0.014192570 RMS     0.004771934
 Search for a local minimum.
 Step number   1 out of a maximum of   77
 All quantities printed in internal units (Hartrees-Bohrs-Radians)
 Mixed Optimization -- RFO/linear search
 Second derivative matrix not updated -- analytic derivatives used.
     Eigenvalues ---   -0.00653   0.00595   0.00848   0.01588   0.01718
     Eigenvalues ---    0.01763   0.01930   0.02227   0.02394   0.02909
     Eigenvalues ---    0.03084   0.03291   0.10551   0.10751   0.11344
     Eigenvalues ---    0.11513   0.12302   0.12391   0.14625   0.18183
     Eigenvalues ---    0.18452   0.19207   0.20402   0.23552   0.33953
     Eigenvalues ---    0.37811   0.38277   0.38605   0.39017   0.39959
     Eigenvalues ---    0.40224   0.45041   0.48911   0.50710   0.51506
     Eigenvalues ---    0.51814   0.51895   0.51975   0.558281000.00000
     Eigenvalues --- 1000.000001000.000001000.000001000.000001000.00000
     Eigenvalues --- 1000.000001000.000001000.000001000.000001000.00000
     Eigenvalues --- 1000.000001000.000001000.000001000.000001000.00000
     Eigenvalues --- 1000.000001000.000001000.000001000.000001000.00000
     Eigenvalues --- 1000.000001000.000001000.000001000.000001000.00000
     Eigenvalues --- 1000.000001000.00000
 RFO step:  Lambda=-6.53297862D-03 EMin=-6.53297564D-03
 RFO eigenvector is Hessian eigenvector with negative curvature.
 Taking step of  7.50D-01 in eigenvector direction.  Step.Grad= -1.97D-06.
 Linear search not attempted -- first point.
 Maximum step size (   0.300) exceeded in Quadratic search.
    -- Step size scaled by   0.400
 Iteration  1 RMS(Cart)=  0.02561485 RMS(Int)=  0.00361149
 Iteration  2 RMS(Cart)=  0.00259770 RMS(Int)=  0.00258799
 Iteration  3 RMS(Cart)=  0.00001090 RMS(Int)=  0.00258797
 Iteration  4 RMS(Cart)=  0.00000006 RMS(Int)=  0.00258797
 Variable       Old X    -DE/DX   Delta X   Delta X   Delta X     New X
                                 (Linear)    (Quad)   (Total)
    R1        2.61352   0.01012   0.00000   0.00000   0.00000   2.61351
    R2        2.60732   0.01159   0.00000   0.00000   0.00000   2.60731
    R3        2.01655   0.01147   0.00000   0.00000   0.00000   2.01655
    R4        2.63837   0.00934   0.00000   0.00000   0.00000   2.63837
    R5        2.63753   0.00825   0.00000   0.00000   0.00000   2.63753
    R6        2.58001   0.00359   0.00000   0.00001   0.00001   2.58002
    R7        2.60516   0.00832   0.00000   0.00000   0.00000   2.60516
    R8        2.62958  -0.01419   0.00000   0.00000   0.00000   2.62958
    R9        2.60637   0.01002   0.00000   0.00000   0.00000   2.60637
   R10        2.02644   0.00851   0.00000   0.00000   0.00000   2.02644
   R11        2.02471   0.00929   0.00000   0.00000   0.00000   2.02471
   R12        2.02822   0.00924   0.00000   0.00000   0.00000   2.02822
   R13        1.83045  -0.00424   0.00000   0.00000   0.00000   1.83045
   R14        1.88496   0.00863   0.00000   0.00000   0.00000   1.88496
   R15        1.88405   0.00892   0.00000   0.00000   0.00000   1.88406
    A1        2.06550  -0.00216   0.00000   0.00000   0.00000   2.06549
    A2        2.08265   0.00238   0.00000   0.00000   0.00000   2.08265
    A3        2.13504  -0.00023   0.00000   0.00000   0.00000   2.13504
    A4        2.06121   0.00339   0.00000   0.00000  -0.00001   2.06119
    A5        2.11456  -0.00135   0.00000   0.00000  -0.00004   2.11453
    A6        2.10742  -0.00204   0.00000  -0.00001  -0.00004   2.10737
    A7        2.10999   0.00409   0.00000   0.00000   0.00000   2.10999
    A8        2.04400  -0.00038   0.00000   0.00000   0.00000   2.04400
    A9        2.12920  -0.00371   0.00000   0.00000   0.00000   2.12920
   A10        2.12362  -0.00048   0.00000   0.00000   0.00000   2.12362
   A11        2.08040   0.00037   0.00000   0.00000   0.00000   2.08040
   A12        2.07917   0.00012   0.00000   0.00000   0.00000   2.07917
   A13        2.09662  -0.00082   0.00000   0.00000   0.00001   2.09662
   A14        2.09019  -0.00030   0.00000   0.00000   0.00000   2.09019
   A15        2.09638   0.00112   0.00000   0.00000   0.00000   2.09637
   A16        2.10945  -0.00402   0.00000   0.00000   0.00001   2.10945
   A17        2.08147   0.00287   0.00000   0.00000  -0.00001   2.08147
   A18        2.09227   0.00115   0.00000   0.00000   0.00000   2.09226
   A19        1.96352  -0.01041   0.00000   0.00000   0.00000   1.96352
   A20        2.11104  -0.00093   0.00000  -0.00003  -0.01197   2.09907
   A21        2.11873  -0.00120   0.00000  -0.00003  -0.01196   2.10677
   A22        2.05342   0.00213   0.00000  -0.00002  -0.01246   2.04096
    D1        0.00002   0.00000   0.00000  -0.00133  -0.00133  -0.00131
    D2       -3.14149   0.00000   0.00000  -0.00214  -0.00214   3.13955
    D3        3.14094   0.00001   0.00000   0.00021   0.00021   3.14115
    D4       -0.00057   0.00001   0.00000  -0.00060  -0.00060  -0.00117
    D5       -0.00002   0.00000   0.00000   0.00049   0.00049   0.00047
    D6        3.14066   0.00002   0.00000   0.00123   0.00123  -3.14129
    D7       -3.14091  -0.00002   0.00000  -0.00110  -0.00110   3.14117
    D8       -0.00023   0.00001   0.00000  -0.00037  -0.00037  -0.00060
    D9        0.00115  -0.00002   0.00000  -0.00235  -0.00235  -0.00120
   D10       -3.14097  -0.00001   0.00000  -0.00082  -0.00082   3.14139
   D11       -3.14129   0.00000   0.00000  -0.01589  -0.01589   3.12600
   D12       -0.00022   0.00001   0.00000  -0.01436  -0.01436  -0.01458
   D13       -0.00115   0.00002   0.00000   0.00154   0.00154   0.00038
   D14       -3.14118   0.00000   0.00000   0.00196   0.00196  -3.13922
   D15        3.14128   0.00000   0.00000   0.01502   0.01502  -3.12689
   D16        0.00125  -0.00002   0.00000   0.01544   0.01544   0.01670
   D17        0.00042  -0.00001   0.00000   0.16009   0.15858   0.15901
   D18       -3.14148  -0.00001   0.00000  -0.13786  -0.13636   3.00535
   D19        3.14115   0.00002   0.00000   0.14620   0.14469  -2.99735
   D20       -0.00076   0.00001   0.00000  -0.15176  -0.15025  -0.15101
   D21        0.00058  -0.00001   0.00000   0.00031   0.00031   0.00089
   D22        3.14060   0.00002   0.00000  -0.00012  -0.00012   3.14048
   D23       -3.14110  -0.00001   0.00000   0.00116   0.00116  -3.13994
   D24       -0.00108   0.00002   0.00000   0.00073   0.00073  -0.00035
   D25       -3.14136   0.00000   0.00000   0.00260   0.00260  -3.13877
   D26        0.00031   0.00000   0.00000   0.00178   0.00178   0.00209
   D27       -0.00058   0.00002   0.00000   0.00137   0.00137   0.00079
   D28        3.14154   0.00001   0.00000  -0.00016  -0.00016   3.14138
   D29       -3.14127  -0.00001   0.00000   0.00064   0.00064  -3.14063
   D30        0.00085  -0.00002   0.00000  -0.00090  -0.00090  -0.00004
         Item               Value     Threshold  Converged?
 Maximum Force            0.014193     0.000450     NO 
 RMS     Force            0.004772     0.000300     NO 
 Maximum Displacement     0.111933     0.001800     NO 
 RMS     Displacement     0.025659     0.001200     NO 
 Predicted change in Energy=-2.878481D-04
 GradGradGradGradGradGradGradGradGradGradGradGradGradGradGradGradGradGrad

                          Input orientation:                          
 ---------------------------------------------------------------------
 Center     Atomic      Atomic             Coordinates (Angstroms)
 Number     Number       Type             X           Y           Z
 ---------------------------------------------------------------------
      1          6           0        1.248141    1.081629    0.020474
      2          6           0       -1.213490   -0.261735   -0.024767
      3          6           0        1.198985   -0.300458    0.008763
      4          6           0        0.058007    1.779548    0.008292
      5          6           0       -1.160284    1.133378   -0.014430
      6          6           0       -0.008322   -0.965632   -0.012955
      7          8           0        2.414163   -0.978356    0.018952
      8          7           0       -2.407952   -0.922991   -0.029019
      9          1           0        2.302067   -1.940407    0.007271
     10          1           0        2.196386    1.570772    0.037675
     11          1           0        0.080148    2.851630    0.016860
     12          1           0       -2.069384    1.700322   -0.023278
     13          1           0       -3.259891   -0.421307   -0.161233
     14          1           0       -2.442128   -1.911689   -0.152778
     15          1           0       -0.027445   -2.038704   -0.022828
 ---------------------------------------------------------------------
                    Distance matrix (angstroms):
                    1          2          3          4          5
     1  C    0.000000
     2  C    2.804693   0.000000
     3  C    1.383011   2.413019   0.000000
     4  C    1.379732   2.405126   2.372395   0.000000
     5  C    2.409234   1.396165   2.760901   1.379233   0.000000
     6  C    2.402311   1.395723   1.378592   2.746064   2.394340
     7  O    2.367097   3.698017   1.391513   3.627344   4.151772
     8  N    4.169889   1.365290   3.660460   3.658696   2.405315
     9  H    3.200568   3.895909   1.976417   4.344407   4.629957
    10  H    1.067110   3.871593   2.120648   2.148748   3.385449
    11  H    2.120642   3.371687   3.344775   1.072345   2.119443
    12  H    3.375007   2.140613   3.832282   2.129099   1.071432
    13  H    4.755438   2.057145   4.463751   3.985091   2.616667
    14  H    4.754794   2.061138   3.984955   4.461149   3.306766
    15  H    3.371272   2.136429   2.127587   3.819335   3.368309
                    6          7          8          9         10
     6  C    0.000000
     7  O    2.422729   0.000000
     8  N    2.400063   4.822672   0.000000
     9  H    2.507686   0.968630   4.818790   0.000000
    10  H    3.361048   2.558482   5.236720   3.512900   0.000000
    11  H    3.818404   4.485134   4.521118   5.282105   2.473762
    12  H    3.369777   5.222959   2.645077   5.689062   4.268172
    13  H    3.300149   5.704180   0.997480   5.768140   5.811962
    14  H    2.614955   4.948148   0.997000   4.746981   5.803415
    15  H    1.073288   2.662242   2.629006   2.331779   4.239977
                   11         12         13         14         15
    11  H    0.000000
    12  H    2.438772   0.000000
    13  H    4.679711   2.436729   0.000000
    14  H    5.392575   3.633502   1.700014   0.000000
    15  H    4.891679   4.260262   3.617159   2.421511   0.000000
 Stoichiometry    C6H7NO
 Framework group  C1[X(C6H7NO)]
 Deg. of freedom    39
 Full point group                 C1      NOp   1
 Largest Abelian subgroup         C1      NOp   1
 Largest concise Abelian subgroup C1      NOp   1
                         Standard orientation:                         
 ---------------------------------------------------------------------
 Center     Atomic      Atomic             Coordinates (Angstroms)
 Number     Number       Type             X           Y           Z
 ---------------------------------------------------------------------
      1          6           0       -1.235477    1.091414    0.001690
      2          6           0        1.209800   -0.282226   -0.004385
      3          6           0       -1.203198   -0.291219   -0.000260
      4          6           0       -0.036777    1.774626    0.001625
      5          6           0        1.173656    1.113467   -0.000876
      6          6           0       -0.003998   -0.971237   -0.003769
      7          8           0       -2.426658   -0.954126    0.002379
      8          7           0        2.395934   -0.958003   -0.025118
      9          1           0       -2.326271   -1.917540    0.003323
     10          1           0       -2.177768    1.592220    0.003993
     11          1           0       -0.045821    2.846931    0.003403
     12          1           0        2.089708    1.669178   -0.001066
     13          1           0        3.255961   -0.468022    0.098327
     14          1           0        2.419841   -1.948178    0.088864
     15          1           0        0.002037   -2.044507   -0.004203
 ---------------------------------------------------------------------
 Rotational constants (GHZ):      3.7951125      1.8340532      1.2366501
 Standard basis: 6-311++G(d,p) (5D, 7F)
 There are   225 symmetry adapted basis functions of A   symmetry.
 Integral buffers will be    131072 words long.
 Raffenetti 2 integral format.
 Two-electron integral symmetry is turned on.
   225 basis functions,   351 primitive gaussians,   233 cartesian basis functions
    29 alpha electrons       29 beta electrons
       nuclear repulsion energy       347.7692258901 Hartrees.
 NAtoms=   15 NActive=   15 NUniq=   15 SFac= 7.50D-01 NAtFMM=   80 NAOKFM=F Big=F
 ------------------------------------------------------------------------------
 Polarizable Continuum Model (PCM)
 =================================
 Model                : PCM.
 Atomic radii         : SMD-Coulomb.
 Polarization charges : Total charges.
 Charge compensation  : None.
 Solution method      : Matrix inversion.
 Cavity type          : VdW (van der Waals Surface) (Alpha=1.000).
 Cavity algorithm     : GePol (No added spheres)
                        Default sphere list used, NSphG=   15.
                        Lebedev-Laikov grids with approx.  5.0 points / Ang**2.
                        Smoothing algorithm: Karplus/York (Gamma=1.0000).
                        Polarization charges: spherical gaussians, with
                                              point-specific exponents (IZeta= 3).
                        Self-potential: point-specific (ISelfS= 7).
                        Self-field    : sphere-specific E.n sum rule (ISelfD= 2).
 1st derivatives      : Analytical E(r).r(x)/FMM algorithm (CHGder, D1EAlg=3).
                        Cavity 1st derivative terms included.
 Solvent              : Water, Eps=  78.355300 Eps(inf)=   1.777849
 ------------------------------------------------------------------------------
 Spheres list:
 ISph  on   Nord    Re0     Alpha      Xe            Ye            Ze
    1   C      1    1.850   1.000     -1.235477      1.091414      0.001690
    2   C      2    1.850   1.000      1.209800     -0.282226     -0.004385
    3   C      3    1.850   1.000     -1.203198     -0.291219     -0.000260
    4   C      4    1.850   1.000     -0.036777      1.774626      0.001625
    5   C      5    1.850   1.000      1.173656      1.113467     -0.000876
    6   C      6    1.850   1.000     -0.003998     -0.971237     -0.003769
    7   O      7    1.520   1.000     -2.426658     -0.954126      0.002379
    8   N      8    1.890   1.000      2.395934     -0.958003     -0.025118
    9   H      9    1.200   1.000     -2.326271     -1.917540      0.003323
   10   H     10    1.200   1.000     -2.177768      1.592220      0.003993
   11   H     11    1.200   1.000     -0.045821      2.846931      0.003403
   12   H     12    1.200   1.000      2.089708      1.669178     -0.001066
   13   H     13    1.200   1.000      3.255961     -0.468022      0.098327
   14   H     14    1.200   1.000      2.419841     -1.948178      0.088864
   15   H     15    1.200   1.000      0.002037     -2.044507     -0.004203
 ------------------------------------------------------------------------------
 ------------------------------------------------------------------------------
 Atomic radii for non-electrostatic terms: SMD-CDS.
 ------------------------------------------------------------------------------
 Nuclear repulsion after PCM non-electrostatic terms =      347.7747462406 Hartrees.
 One-electron integrals computed using PRISM.
 NBasis=   225 RedAO= T  NBF=   225
 NBsUse=   224 1.00D-06 NBFU=   224
 Initial guess read from the read-write file.
 B after Tr=     0.000000    0.000000    0.000000
         Rot=    1.000000    0.000000    0.000000    0.000000 Ang=   0.00 deg.
 Initial guess orbital symmetries:
       Occupied  (A) (A) (A) (A) (A) (A) (A) (A) (A) (A) (A) (A)
                 (A) (A) (A) (A) (A) (A) (A) (A) (A) (A) (A) (A)
                 (A) (A) (A) (A) (A)
       Virtual   (A) (A) (A) (A) (A) (A) (A) (A) (A) (A) (A) (A)
                 (A) (A) (A) (A) (A) (A) (A) (A) (A) (A) (A) (A)
                 (A) (A) (A) (A) (A) (A) (A) (A) (A) (A) (A) (A)
                 (A) (A) (A) (A) (A) (A) (A) (A) (A) (A) (A) (A)
                 (A) (A) (A) (A) (A) (A) (A) (A) (A) (A) (A) (A)
                 (A) (A) (A) (A) (A) (A) (A) (A) (A) (A) (A) (A)
                 (A) (A) (A) (A) (A) (A) (A) (A) (A) (A) (A) (A)
                 (A) (A) (A) (A) (A) (A) (A) (A) (A) (A) (A) (A)
                 (A) (A) (A) (A) (A) (A) (A) (A) (A) (A) (A) (A)
                 (A) (A) (A) (A) (A) (A) (A) (A) (A) (A) (A) (A)
                 (A) (A) (A) (A) (A) (A) (A) (A) (A) (A) (A) (A)
                 (A) (A) (A) (A) (A) (A) (A) (A) (A) (A) (A) (A)
                 (A) (A) (A) (A) (A) (A) (A) (A) (A) (A) (A) (A)
                 (A) (A) (A) (A) (A) (A) (A) (A) (A) (A) (A) (A)
                 (A) (A) (A) (A) (A) (A) (A) (A) (A) (A) (A) (A)
                 (A) (A) (A) (A) (A) (A) (A) (A) (A) (A) (A) (A)
                 (A) (A) (A)
 Harris functional with IExCor= 1009 diagonalized for initial guess.
 ExpMin= 3.60D-02 ExpMax= 8.59D+03 ExpMxC= 1.30D+03 IAcc=3 IRadAn=         0 AccDes= 0.00D+00
 HarFok:  IExCor= 1009 AccDes= 0.00D+00 IRadAn=         0 IDoV= 1
 ScaDFX=  1.000000  1.000000  1.000000  1.000000
 FoFCou: FMM=F IPFlag=           0 FMFlag=      100000 FMFlg1=           0
         NFxFlg=           0 DoJE=T BraDBF=F KetDBF=T FulRan=T
         Omega=  0.000000  0.000000  1.000000  0.000000  0.000000 ICntrl=     500 IOpCl=  0
         NMat0=    1 NMatS0=    1 NMatT0=    0 NMatD0=    1 NMtDS0=    0 NMtDT0=    0
         I1Cent=           4 NGrid=           0.
 Petite list used in FoFCou.
 Requested convergence on RMS density matrix=1.00D-08 within 128 cycles.
 Requested convergence on MAX density matrix=1.00D-06.
 Requested convergence on             energy=1.00D-06.
 No special actions if energy rises.
 Keep R1 ints in memory in canonical form, NReq=378316383.
 Error on total polarization charges =  0.04346
 SCF Done:  E(RM062X) =  -362.792968918     A.U. after   14 cycles
             Convg  =    0.8630D-08             -V/T =  2.0033
 SMD-CDS (non-electrostatic) energy             (kcal/mol) =       3.46
 (included in total energy above)
 D1PCM: PCM CHGder 1st derivatives, ID1Alg=3 FixD1E=F DoIter=F DoCFld=F I1PDM=0.
 Calling FoFJK, ICntrl=      2127 FMM=F ISym2X=0 I1Cent= 0 IOpClX= 0 NMat=1 NMatS=1 NMatT=0.
 ***** Axes restored to original set *****
 -------------------------------------------------------------------
 Center     Atomic                   Forces (Hartrees/Bohr)
 Number     Number              X              Y              Z
 -------------------------------------------------------------------
      1        6           0.004255479   -0.001977532    0.000068884
      2        6           0.001831715    0.001695095   -0.001283846
      3        6           0.012322468   -0.010857159    0.000129790
      4        6          -0.001083245    0.001337305    0.000104068
      5        6          -0.002487765    0.000503865   -0.000007981
      6        6          -0.001070462   -0.007132048   -0.000075475
      7        8          -0.005928910    0.004430215   -0.000040645
      8        7           0.000599681    0.000606407    0.005248781
      9        1          -0.005138002    0.004896107    0.000000258
     10        1           0.009588718    0.006432519    0.000171576
     11        1           0.000041511    0.008516181    0.000012774
     12        1          -0.008288271    0.004309422   -0.000146095
     13        1          -0.006817093    0.005922356   -0.001983341
     14        1           0.001505685   -0.009402782   -0.002119783
     15        1           0.000668491   -0.009279950   -0.000078966
 -------------------------------------------------------------------
 Cartesian Forces:  Max     0.012322468 RMS     0.004841695

 GradGradGradGradGradGradGradGradGradGradGradGradGradGradGradGradGradGrad
 Berny optimization.
 Using GEDIIS/GDIIS optimizer.
 Internal  Forces:  Max     0.014209032 RMS     0.004821634
 Search for a local minimum.
 Step number   2 out of a maximum of   77
 All quantities printed in internal units (Hartrees-Bohrs-Radians)
 Mixed Optimization -- RFO/linear search
 Update second derivatives using D2CorX and points    1    2
 DE= -2.83D-04 DEPred=-2.88D-04 R= 9.83D-01
 SS=  1.41D+00  RLast= 2.98D-01 DXNew= 5.0454D-01 8.9325D-01
 Trust test= 9.83D-01 RLast= 2.98D-01 DXMaxT set to 5.05D-01
 Use linear search instead of GDIIS.
     Eigenvalues ---   -0.00608   0.00595   0.00845   0.01588   0.01718
     Eigenvalues ---    0.01763   0.01930   0.02226   0.02394   0.02909
     Eigenvalues ---    0.03084   0.03291   0.10551   0.10725   0.11342
     Eigenvalues ---    0.11512   0.12302   0.12391   0.14624   0.18176
     Eigenvalues ---    0.18440   0.19206   0.20388   0.23549   0.33952
     Eigenvalues ---    0.37782   0.38220   0.38603   0.39017   0.39823
     Eigenvalues ---    0.40110   0.45022   0.48757   0.50710   0.51438
     Eigenvalues ---    0.51731   0.51876   0.51904   0.557951000.00000
     Eigenvalues --- 1000.000001000.000001000.000001000.000001000.00000
     Eigenvalues --- 1000.000001000.000001000.000001000.000001000.00000
     Eigenvalues --- 1000.000001000.000001000.000001000.000001000.00000
     Eigenvalues --- 1000.000001000.000001000.000001000.000001000.00000
     Eigenvalues --- 1000.000001000.000001000.000001000.000001000.00000
     Eigenvalues --- 1000.000001000.00000
 RFO step:  Lambda=-7.15985831D-03 EMin=-6.07712206D-03
 Skip linear search -- no minimum in search direction.
 Maximum step size (   0.505) exceeded in Quadratic search.
    -- Step size scaled by   0.502
 Iteration  1 RMS(Cart)=  0.03722420 RMS(Int)=  0.01470436
 Iteration  2 RMS(Cart)=  0.01239722 RMS(Int)=  0.00783518
 Iteration  3 RMS(Cart)=  0.00056768 RMS(Int)=  0.00781355
 Iteration  4 RMS(Cart)=  0.00002874 RMS(Int)=  0.00781351
 Iteration  5 RMS(Cart)=  0.00000138 RMS(Int)=  0.00781351
 Iteration  6 RMS(Cart)=  0.00000007 RMS(Int)=  0.00781351
 Variable       Old X    -DE/DX   Delta X   Delta X   Delta X     New X
                                 (Linear)    (Quad)   (Total)
    R1        2.61351   0.01007   0.00000   0.00921   0.00920   2.62271
    R2        2.60731   0.01152   0.00000   0.01070   0.01069   2.61800
    R3        2.01655   0.01147   0.00000   0.01385   0.01385   2.03040
    R4        2.63837   0.00910   0.00000   0.00669   0.00670   2.64507
    R5        2.63753   0.00799   0.00000   0.00524   0.00525   2.64278
    R6        2.58002   0.00550   0.00000   0.01423   0.01423   2.59425
    R7        2.60516   0.00839   0.00000   0.00941   0.00941   2.61457
    R8        2.62958  -0.01421   0.00000  -0.01613  -0.01613   2.61345
    R9        2.60637   0.01008   0.00000   0.00882   0.00882   2.61519
   R10        2.02644   0.00851   0.00000   0.01072   0.01072   2.03715
   R11        2.02471   0.00931   0.00000   0.01148   0.01148   2.03619
   R12        2.02822   0.00927   0.00000   0.01161   0.01161   2.03983
   R13        1.83045  -0.00425   0.00000  -0.00360  -0.00360   1.82684
   R14        1.88496   0.00908   0.00000   0.01000   0.01000   1.89496
   R15        1.88406   0.00952   0.00000   0.01079   0.01079   1.89485
    A1        2.06549  -0.00213   0.00000  -0.00178  -0.00179   2.06370
    A2        2.08265   0.00237   0.00000   0.00544   0.00544   2.08809
    A3        2.13504  -0.00025   0.00000  -0.00366  -0.00366   2.13139
    A4        2.06119   0.00343   0.00000   0.00875   0.00870   2.06989
    A5        2.11453  -0.00136   0.00000  -0.00467  -0.00477   2.10976
    A6        2.10737  -0.00207   0.00000  -0.00438  -0.00448   2.10289
    A7        2.10999   0.00401   0.00000   0.00567   0.00567   2.11565
    A8        2.04400  -0.00036   0.00000   0.00290   0.00290   2.04690
    A9        2.12920  -0.00365   0.00000  -0.00857  -0.00857   2.12063
   A10        2.12362  -0.00056   0.00000  -0.00111  -0.00111   2.12250
   A11        2.08040   0.00039   0.00000   0.00047   0.00047   2.08087
   A12        2.07917   0.00017   0.00000   0.00064   0.00064   2.07981
   A13        2.09662  -0.00078   0.00000  -0.00260  -0.00257   2.09405
   A14        2.09019  -0.00033   0.00000  -0.00221  -0.00223   2.08796
   A15        2.09637   0.00111   0.00000   0.00481   0.00480   2.10117
   A16        2.10945  -0.00399   0.00000  -0.00893  -0.00890   2.10055
   A17        2.08147   0.00282   0.00000   0.00843   0.00841   2.08988
   A18        2.09226   0.00116   0.00000   0.00051   0.00049   2.09276
   A19        1.96352  -0.01040   0.00000  -0.02842  -0.02842   1.93510
   A20        2.09907  -0.00118   0.00000  -0.04714  -0.07729   2.02178
   A21        2.10677  -0.00148   0.00000  -0.04866  -0.07873   2.02804
   A22        2.04096   0.00214   0.00000  -0.02748  -0.06829   1.97267
    D1       -0.00131   0.00001   0.00000  -0.00092  -0.00091  -0.00222
    D2        3.13955   0.00001   0.00000  -0.00187  -0.00186   3.13769
    D3        3.14115   0.00002   0.00000   0.00068   0.00069  -3.14135
    D4       -0.00117   0.00002   0.00000  -0.00026  -0.00026  -0.00143
    D5        0.00047   0.00000   0.00000   0.00082   0.00081   0.00128
    D6       -3.14129   0.00002   0.00000   0.00240   0.00238  -3.13891
    D7        3.14117   0.00000   0.00000  -0.00083  -0.00083   3.14034
    D8       -0.00060   0.00002   0.00000   0.00075   0.00075   0.00015
    D9       -0.00120  -0.00001   0.00000  -0.00309  -0.00307  -0.00427
   D10        3.14139  -0.00001   0.00000  -0.00193  -0.00192   3.13948
   D11        3.12600  -0.00011   0.00000  -0.02694  -0.02697   3.09903
   D12       -0.01458  -0.00011   0.00000  -0.02578  -0.02582  -0.04040
   D13        0.00038   0.00003   0.00000   0.00301   0.00298   0.00336
   D14       -3.13922  -0.00002   0.00000   0.00143   0.00141  -3.13781
   D15       -3.12689   0.00012   0.00000   0.02676   0.02679  -3.10010
   D16        0.01670   0.00007   0.00000   0.02519   0.02522   0.04192
   D17        0.15901   0.00083   0.00000   0.25344   0.24100   0.40000
   D18        3.00535  -0.00090   0.00000  -0.23926  -0.22695   2.77840
   D19       -2.99735   0.00077   0.00000   0.22906   0.21675  -2.78060
   D20       -0.15101  -0.00095   0.00000  -0.26364  -0.25120  -0.40221
   D21        0.00089  -0.00003   0.00000  -0.00102  -0.00100  -0.00011
   D22        3.14048   0.00002   0.00000   0.00057   0.00058   3.14106
   D23       -3.13994  -0.00003   0.00000  -0.00003  -0.00002  -3.13996
   D24       -0.00035   0.00002   0.00000   0.00156   0.00156   0.00121
   D25       -3.13877  -0.00002   0.00000  -0.00032  -0.00032  -3.13909
   D26        0.00209  -0.00001   0.00000  -0.00127  -0.00126   0.00082
   D27        0.00079  -0.00001   0.00000   0.00122   0.00120   0.00199
   D28        3.14138   0.00000   0.00000   0.00005   0.00003   3.14140
   D29       -3.14063  -0.00002   0.00000  -0.00036  -0.00038  -3.14100
   D30       -0.00004  -0.00002   0.00000  -0.00153  -0.00154  -0.00158
         Item               Value     Threshold  Converged?
 Maximum Force            0.014209     0.000450     NO 
 RMS     Force            0.004822     0.000300     NO 
 Maximum Displacement     0.188450     0.001800     NO 
 RMS     Displacement     0.046698     0.001200     NO 
 Predicted change in Energy=-3.085060D-03
 GradGradGradGradGradGradGradGradGradGradGradGradGradGradGradGradGradGrad

                          Input orientation:                          
 ---------------------------------------------------------------------
 Center     Atomic      Atomic             Coordinates (Angstroms)
 Number     Number       Type             X           Y           Z
 ---------------------------------------------------------------------
      1          6           0        1.249885    1.082799    0.006437
      2          6           0       -1.214266   -0.267053    0.016689
      3          6           0        1.199066   -0.304145    0.009046
      4          6           0        0.054235    1.782598    0.006239
      5          6           0       -1.167110    1.131848    0.010071
      6          6           0       -0.009625   -0.977431    0.014027
      7          8           0        2.404190   -0.982584    0.004403
      8          7           0       -2.414451   -0.931338    0.070704
      9          1           0        2.261219   -1.938677    0.004459
     10          1           0        2.202569    1.579588    0.002341
     11          1           0        0.075203    2.860401    0.001706
     12          1           0       -2.085222    1.695845    0.010015
     13          1           0       -3.213681   -0.416510   -0.248248
     14          1           0       -2.408571   -1.882580   -0.246369
     15          1           0       -0.024442   -2.056760    0.015480
 ---------------------------------------------------------------------
                    Distance matrix (angstroms):
                    1          2          3          4          5
     1  C    0.000000
     2  C    2.809670   0.000000
     3  C    1.387877   2.413629   0.000000
     4  C    1.385387   2.410451   2.380155   0.000000
     5  C    2.417495   1.399711   2.767826   1.383899   0.000000
     6  C    2.414741   1.398501   1.383572   2.760779   2.406002
     7  O    2.366059   3.688544   1.382977   3.628846   4.150306
     8  N    4.181894   1.372820   3.668061   3.669335   2.411694
     9  H    3.186240   3.856615   1.949330   4.326508   4.602347
    10  H    1.074441   3.883948   2.134365   2.157908   3.399304
    11  H    2.130673   3.382887   3.358194   1.078016   2.128687
    12  H    3.390984   2.147458   3.845322   2.141219   1.077508
    13  H    4.715529   2.022422   4.421669   3.947166   2.579262
    14  H    4.716109   2.026201   3.946104   4.422981   3.270132
    15  H    3.388337   2.149124   2.137446   3.840176   3.387173
                    6          7          8          9         10
     6  C    0.000000
     7  O    2.413840   0.000000
     8  N    2.405935   4.819369   0.000000
     9  H    2.465932   0.966724   4.783410   0.000000
    10  H    3.381167   2.570094   5.256072   3.518755   0.000000
    11  H    3.838789   4.493631   4.536565   5.273502   2.483176
    12  H    3.384453   5.227699   2.648427   5.665804   4.289373
    13  H    3.263341   5.651969   1.002770   5.688180   5.777800
    14  H    2.577216   4.902606   1.002712   4.676858   5.771575
    15  H    1.079432   2.655604   2.642303   2.288737   4.264128
                   11         12         13         14         15
    11  H    0.000000
    12  H    2.454322   0.000000
    13  H    4.649450   2.408768   0.000000
    14  H    5.359715   3.602140   1.672592   0.000000
    15  H    4.918190   4.281225   3.596000   2.404781   0.000000
 Stoichiometry    C6H7NO
 Framework group  C1[X(C6H7NO)]
 Deg. of freedom    39
 Full point group                 C1      NOp   1
 Largest Abelian subgroup         C1      NOp   1
 Largest concise Abelian subgroup C1      NOp   1
                         Standard orientation:                         
 ---------------------------------------------------------------------
 Center     Atomic      Atomic             Coordinates (Angstroms)
 Number     Number       Type             X           Y           Z
 ---------------------------------------------------------------------
      1          6           0       -1.240128    1.095042    0.004345
      2          6           0        1.207715   -0.284116   -0.010981
      3          6           0       -1.205875   -0.292405   -0.000220
      4          6           0       -0.036210    1.780517    0.003926
      5          6           0        1.177273    1.115238   -0.002396
      6          6           0       -0.005317   -0.980065   -0.007705
      7          8           0       -2.419007   -0.956416    0.005082
      8          7           0        2.399812   -0.962605   -0.067477
      9          1           0       -2.287462   -1.914147    0.003536
     10          1           0       -2.186807    1.603162    0.010368
     11          1           0       -0.044302    2.858485    0.009954
     12          1           0        2.102053    1.668234   -0.002778
     13          1           0        3.205545   -0.457795    0.251126
     14          1           0        2.382987   -1.914145    0.248308
     15          1           0       -0.003389   -2.059491   -0.010647
 ---------------------------------------------------------------------
 Rotational constants (GHZ):      3.7673343      1.8374506      1.2361650
 Standard basis: 6-311++G(d,p) (5D, 7F)
 There are   225 symmetry adapted basis functions of A   symmetry.
 Integral buffers will be    131072 words long.
 Raffenetti 2 integral format.
 Two-electron integral symmetry is turned on.
   225 basis functions,   351 primitive gaussians,   233 cartesian basis functions
    29 alpha electrons       29 beta electrons
       nuclear repulsion energy       347.3043968135 Hartrees.
 NAtoms=   15 NActive=   15 NUniq=   15 SFac= 7.50D-01 NAtFMM=   80 NAOKFM=F Big=F
 ------------------------------------------------------------------------------
 Polarizable Continuum Model (PCM)
 =================================
 Model                : PCM.
 Atomic radii         : SMD-Coulomb.
 Polarization charges : Total charges.
 Charge compensation  : None.
 Solution method      : Matrix inversion.
 Cavity type          : VdW (van der Waals Surface) (Alpha=1.000).
 Cavity algorithm     : GePol (No added spheres)
                        Default sphere list used, NSphG=   15.
                        Lebedev-Laikov grids with approx.  5.0 points / Ang**2.
                        Smoothing algorithm: Karplus/York (Gamma=1.0000).
                        Polarization charges: spherical gaussians, with
                                              point-specific exponents (IZeta= 3).
                        Self-potential: point-specific (ISelfS= 7).
                        Self-field    : sphere-specific E.n sum rule (ISelfD= 2).
 1st derivatives      : Analytical E(r).r(x)/FMM algorithm (CHGder, D1EAlg=3).
                        Cavity 1st derivative terms included.
 Solvent              : Water, Eps=  78.355300 Eps(inf)=   1.777849
 ------------------------------------------------------------------------------
 Spheres list:
 ISph  on   Nord    Re0     Alpha      Xe            Ye            Ze
    1   C      1    1.850   1.000     -1.240128      1.095042      0.004345
    2   C      2    1.850   1.000      1.207715     -0.284116     -0.010981
    3   C      3    1.850   1.000     -1.205875     -0.292405     -0.000220
    4   C      4    1.850   1.000     -0.036210      1.780517      0.003926
    5   C      5    1.850   1.000      1.177273      1.115238     -0.002396
    6   C      6    1.850   1.000     -0.005317     -0.980065     -0.007705
    7   O      7    1.520   1.000     -2.419007     -0.956416      0.005082
    8   N      8    1.890   1.000      2.399812     -0.962605     -0.067477
    9   H      9    1.200   1.000     -2.287462     -1.914147      0.003536
   10   H     10    1.200   1.000     -2.186807      1.603162      0.010368
   11   H     11    1.200   1.000     -0.044302      2.858485      0.009954
   12   H     12    1.200   1.000      2.102053      1.668234     -0.002778
   13   H     13    1.200   1.000      3.205545     -0.457795      0.251126
   14   H     14    1.200   1.000      2.382987     -1.914145      0.248308
   15   H     15    1.200   1.000     -0.003389     -2.059491     -0.010647
 ------------------------------------------------------------------------------
 ------------------------------------------------------------------------------
 Atomic radii for non-electrostatic terms: SMD-CDS.
 ------------------------------------------------------------------------------
 Nuclear repulsion after PCM non-electrostatic terms =      347.3099144680 Hartrees.
 One-electron integrals computed using PRISM.
 NBasis=   225 RedAO= T  NBF=   225
 NBsUse=   225 1.00D-06 NBFU=   225
 Initial guess read from the read-write file.
 B after Tr=     0.000000    0.000000    0.000000
         Rot=    1.000000    0.000000    0.000000    0.000000 Ang=   0.00 deg.
 Initial guess orbital symmetries:
       Occupied  (A) (A) (A) (A) (A) (A) (A) (A) (A) (A) (A) (A)
                 (A) (A) (A) (A) (A) (A) (A) (A) (A) (A) (A) (A)
                 (A) (A) (A) (A) (A)
       Virtual   (A) (A) (A) (A) (A) (A) (A) (A) (A) (A) (A) (A)
                 (A) (A) (A) (A) (A) (A) (A) (A) (A) (A) (A) (A)
                 (A) (A) (A) (A) (A) (A) (A) (A) (A) (A) (A) (A)
                 (A) (A) (A) (A) (A) (A) (A) (A) (A) (A) (A) (A)
                 (A) (A) (A) (A) (A) (A) (A) (A) (A) (A) (A) (A)
                 (A) (A) (A) (A) (A) (A) (A) (A) (A) (A) (A) (A)
                 (A) (A) (A) (A) (A) (A) (A) (A) (A) (A) (A) (A)
                 (A) (A) (A) (A) (A) (A) (A) (A) (A) (A) (A) (A)
                 (A) (A) (A) (A) (A) (A) (A) (A) (A) (A) (A) (A)
                 (A) (A) (A) (A) (A) (A) (A) (A) (A) (A) (A) (A)
                 (A) (A) (A) (A) (A) (A) (A) (A) (A) (A) (A) (A)
                 (A) (A) (A) (A) (A) (A) (A) (A) (A) (A) (A) (A)
                 (A) (A) (A) (A) (A) (A) (A) (A) (A) (A) (A) (A)
                 (A) (A) (A) (A) (A) (A) (A) (A) (A) (A) (A) (A)
                 (A) (A) (A) (A) (A) (A) (A) (A) (A) (A) (A) (A)
                 (A) (A) (A) (A) (A) (A) (A) (A) (A) (A) (A) (A)
                 (A) (A) (A) (A)
 Harris functional with IExCor= 1009 diagonalized for initial guess.
 ExpMin= 3.60D-02 ExpMax= 8.59D+03 ExpMxC= 1.30D+03 IAcc=3 IRadAn=         0 AccDes= 0.00D+00
 HarFok:  IExCor= 1009 AccDes= 0.00D+00 IRadAn=         0 IDoV= 1
 ScaDFX=  1.000000  1.000000  1.000000  1.000000
 FoFCou: FMM=F IPFlag=           0 FMFlag=      100000 FMFlg1=           0
         NFxFlg=           0 DoJE=T BraDBF=F KetDBF=T FulRan=T
         Omega=  0.000000  0.000000  1.000000  0.000000  0.000000 ICntrl=     500 IOpCl=  0
         NMat0=    1 NMatS0=    1 NMatT0=    0 NMatD0=    1 NMtDS0=    0 NMtDT0=    0
         I1Cent=           4 NGrid=           0.
 Petite list used in FoFCou.
 Requested convergence on RMS density matrix=1.00D-08 within 128 cycles.
 Requested convergence on MAX density matrix=1.00D-06.
 Requested convergence on             energy=1.00D-06.
 No special actions if energy rises.
 Keep R1 ints in memory in canonical form, NReq=378316383.
 Error on total polarization charges =  0.04353
 SCF Done:  E(RM062X) =  -362.795467901     A.U. after   13 cycles
             Convg  =    0.5500D-08             -V/T =  2.0035
 SMD-CDS (non-electrostatic) energy             (kcal/mol) =       3.46
 (included in total energy above)
 D1PCM: PCM CHGder 1st derivatives, ID1Alg=3 FixD1E=F DoIter=F DoCFld=F I1PDM=0.
 Calling FoFJK, ICntrl=      2127 FMM=F ISym2X=0 I1Cent= 0 IOpClX= 0 NMat=1 NMatS=1 NMatT=0.
 ***** Axes restored to original set *****
 -------------------------------------------------------------------
 Center     Atomic                   Forces (Hartrees/Bohr)
 Number     Number              X              Y              Z
 -------------------------------------------------------------------
      1        6           0.001608666   -0.001299111    0.000053621
      2        6           0.008647715    0.005203579   -0.001480914
      3        6           0.006930258   -0.005562347   -0.000014582
      4        6          -0.000186480    0.001029104    0.000013793
      5        6          -0.001088612   -0.000955758    0.000283064
      6        6          -0.001616748   -0.002828166    0.000190302
      7        8          -0.003182290    0.002377364   -0.000013697
      8        7          -0.004953941   -0.002696152    0.005765030
      9        1          -0.002385657    0.002390301    0.000040396
     10        1           0.004940876    0.003373378   -0.000031216
     11        1           0.000057782    0.004407576   -0.000069658
     12        1          -0.004418693    0.002146677   -0.000063965
     13        1          -0.005347668    0.004123116   -0.002306559
     14        1           0.000702407   -0.006897191   -0.002334725
     15        1           0.000292385   -0.004812370   -0.000030889
 -------------------------------------------------------------------
 Cartesian Forces:  Max     0.008647715 RMS     0.003334990

 GradGradGradGradGradGradGradGradGradGradGradGradGradGradGradGradGradGrad
 Berny optimization.
 Using GEDIIS/GDIIS optimizer.
 Internal  Forces:  Max     0.011075017 RMS     0.002892360
 Search for a local minimum.
 Step number   3 out of a maximum of   77
 All quantities printed in internal units (Hartrees-Bohrs-Radians)
 Mixed Optimization -- RFO/linear search
 Update second derivatives using D2CorX and points    2    3
 DE= -2.50D-03 DEPred=-3.09D-03 R= 8.10D-01
 SS=  1.41D+00  RLast= 4.92D-01 DXNew= 8.4853D-01 1.4766D+00
 Trust test= 8.10D-01 RLast= 4.92D-01 DXMaxT set to 8.49D-01
 Use linear search instead of GDIIS.
     Eigenvalues ---    0.00429   0.00596   0.00845   0.01588   0.01718
     Eigenvalues ---    0.01763   0.01929   0.02226   0.02394   0.02911
     Eigenvalues ---    0.03084   0.03291   0.10553   0.10615   0.11365
     Eigenvalues ---    0.11523   0.12302   0.12399   0.15608   0.18222
     Eigenvalues ---    0.18525   0.19419   0.20555   0.23581   0.34026
     Eigenvalues ---    0.38077   0.38498   0.38958   0.39255   0.40946
     Eigenvalues ---    0.43382   0.48333   0.50157   0.50971   0.51731
[...]
 ! A3    A(4,1,10)             121.793          -DE/DX =    0.0                 !
 ! A4    A(5,2,6)              119.2958         -DE/DX =    0.0                 !
 ! A5    A(5,2,8)              120.55           -DE/DX =    0.0                 !
 ! A6    A(6,2,8)              120.0898         -DE/DX =    0.0                 !
 ! A7    A(1,3,6)              121.3656         -DE/DX =    0.0                 !
 ! A8    A(1,3,7)              117.3703         -DE/DX =    0.0                 !
 ! A9    A(6,3,7)              121.264          -DE/DX =    0.0                 !
 ! A10   A(1,4,5)              121.451          -DE/DX =    0.0                 !
 ! A11   A(1,4,11)             119.2737         -DE/DX =    0.0                 !
 ! A12   A(5,4,11)             119.2753         -DE/DX =    0.0                 !
 ! A13   A(2,5,4)              119.7697         -DE/DX =    0.0                 !
 ! A14   A(2,5,12)             119.4898         -DE/DX =    0.0                 !
 ! A15   A(4,5,12)             120.7405         -DE/DX =    0.0                 !
 ! A16   A(2,6,3)              119.8298         -DE/DX =    0.0                 !
 ! A17   A(2,6,15)             120.2025         -DE/DX =    0.0                 !
 ! A18   A(3,6,15)             119.9677         -DE/DX =    0.0                 !
 ! A19   A(3,7,9)              109.6555         -DE/DX =    0.0                 !
 ! A20   A(2,8,13)             114.1595         -DE/DX =    0.0                 !
 ! A21   A(2,8,14)             114.4339         -DE/DX =    0.0                 !
 ! A22   A(13,8,14)            111.9224         -DE/DX =    0.0                 !
 ! D1    D(4,1,3,6)             -0.1552         -DE/DX =    0.0                 !
 ! D2    D(4,1,3,7)            179.7786         -DE/DX =    0.0                 !
 ! D3    D(10,1,3,6)          -179.9842         -DE/DX =    0.0                 !
 ! D4    D(10,1,3,7)            -0.0504         -DE/DX =    0.0                 !
 ! D5    D(3,1,4,5)              0.1541         -DE/DX =    0.0                 !
 ! D6    D(3,1,4,11)          -179.7763         -DE/DX =    0.0                 !
 ! D7    D(10,1,4,5)           179.9797         -DE/DX =    0.0                 !
 ! D8    D(10,1,4,11)            0.0493         -DE/DX =    0.0                 !
 ! D9    D(6,2,5,4)             -0.123          -DE/DX =    0.0                 !
 ! D10   D(6,2,5,12)           179.8521         -DE/DX =    0.0                 !
 ! D11   D(8,2,5,4)            176.9627         -DE/DX =    0.0                 !
 ! D12   D(8,2,5,12)            -3.0622         -DE/DX =    0.0                 !
 ! D13   D(5,2,6,3)              0.1219         -DE/DX =    0.0                 !
 ! D14   D(5,2,6,15)          -179.8292         -DE/DX =    0.0                 !
 ! D15   D(8,2,6,3)           -176.9774         -DE/DX =    0.0                 !
 ! D16   D(8,2,6,15)             3.0715         -DE/DX =    0.0                 !
 ! D17   D(5,2,8,13)            25.7636         -DE/DX =    0.0                 !
 ! D18   D(5,2,8,14)           156.5502         -DE/DX =    0.0                 !
 ! D19   D(6,2,8,13)          -157.1739         -DE/DX =    0.0                 !
 ! D20   D(6,2,8,14)           -26.3873         -DE/DX =    0.0                 !
 ! D21   D(1,3,6,2)              0.0185         -DE/DX =    0.0                 !
 ! D22   D(1,3,6,15)           179.9697         -DE/DX =    0.0                 !
 ! D23   D(7,3,6,2)           -179.9127         -DE/DX =    0.0                 !
 ! D24   D(7,3,6,15)             0.0385         -DE/DX =    0.0                 !
 ! D25   D(1,3,7,9)            179.8162         -DE/DX =    0.0                 !
 ! D26   D(6,3,7,9)             -0.2499         -DE/DX =    0.0                 !
 ! D27   D(1,4,5,2)             -0.0164         -DE/DX =    0.0                 !
 ! D28   D(1,4,5,12)          -179.9912         -DE/DX =    0.0                 !
 ! D29   D(11,4,5,2)           179.9141         -DE/DX =    0.0                 !
 ! D30   D(11,4,5,12)           -0.0608         -DE/DX =    0.0                 !
 --------------------------------------------------------------------------------
 GradGradGradGradGradGradGradGradGradGradGradGradGradGradGradGradGradGrad

 1\1\GINC-NODE60\Freq\RM062X\6-311++G(d,p)\C6H7N1O1\XIAO53\22-Jan-2016\
 0\\#N Geom=AllCheck Guess=TCheck SCRF=Check GenChk RM062X/6-311++G(d,p
 ) Freq\\aminophenol\\0,1\C,1.2566925808,1.0851451416,0.00359398\C,-1.2
 079144041,-0.2671503215,0.0225134538\C,1.2053661068,-0.3071865588,0.00
 81196993\C,0.0567918144,1.7891075632,0.0055595744\C,-1.1683183993,1.13
 36020122,0.0150461519\C,-0.0070946691,-0.9863070514,0.0176621617\O,2.4
 009736082,-0.9831614356,0.0013691604\N,-2.4245668206,-0.9404227938,0.0
 955908752\H,2.2362882422,-1.9341577165,0.0083263017\H,2.2144195981,1.5
 902524709,-0.0041076389\H,0.0780679311,2.8731143572,-0.0015914474\H,-2
 .0967020219,1.6938568561,0.0163388358\H,-3.2109951387,-0.4144664795,-0
 .2625977013\H,-2.4033901541,-1.8838769582,-0.2693550222\H,-0.020618273
 7,-2.0723490858,0.0205316155\\Version=EM64L-G09RevA.02\State=1-A\HF=-3
 62.796237\RMSD=3.383e-09\RMSF=6.577e-06\ZeroPoint=0.1217744\Thermal=0.
 1285966\Dipole=-1.0951951,-0.9335275,-0.5543912\DipoleDeriv=-0.5565337
 ,-0.0207821,0.0072943,0.4868177,-0.5873035,0.0011455,-0.0000199,0.0005
 437,-0.3210277,1.8557629,0.7322859,-0.1076375,0.9602808,0.8686845,-0.0
 649651,-0.0692798,-0.0386934,0.1142389,1.7900197,-0.5381285,-0.0151509
 ,-0.8566733,1.1851413,0.0014127,-0.0226969,0.0011783,0.1523156,0.81278
 52,-0.0281378,-0.0091511,0.006825,0.0992824,-0.007535,-0.0049371,-0.00
 79647,-0.169022,-0.5214713,-0.0302018,0.0028472,-0.7121314,-0.5136522,
 0.0321411,-0.0247745,-0.0029793,-0.309378,-0.9445025,-0.1113873,0.0264
 808,0.0471373,-0.1597478,-0.0129026,-0.004208,-0.0122985,-0.318605,-1.
 6867699,0.7904753,0.0028443,0.9294857,-1.0374731,-0.0046628,0.0077733,
 -0.0045647,-0.5363401,-1.7894367,-0.7463793,0.1351401,-0.801852,-0.811
 0943,0.0787558,0.4753989,0.2541835,-0.6583022,0.3489774,-0.1020034,0.0
 015383,-0.1036105,0.4347617,0.0007221,0.0000492,0.000132,0.4555947,-0.
 0227414,-0.0537243,0.0015662,-0.0612403,0.0860375,0.0009246,0.0026492,
 0.0015593,0.2408908,0.1283942,-0.0032824,-0.0005913,-0.0072141,-0.0754
 18,0.001836,-0.0000617,0.0024244,0.1889462,-0.0477649,0.0674434,0.0013
 78,0.0631305,0.0680152,-0.0000589,0.0072202,0.0034571,0.2276951,0.3500
 314,0.0024354,-0.0424622,-0.0633946,0.1668838,0.0203195,-0.2194426,-0.
 0339435,0.3463267,0.1891436,0.0370424,-0.0046185,0.1022181,0.3149904,-
 0.0488729,-0.1553046,-0.1673211,0.3470699,0.0941058,0.0043445,0.000522
 3,0.0102212,-0.0391079,0.00174,0.0076343,0.0042869,0.2395971\Polar=150
 .3422319,4.5670923,133.8822923,-1.3307825,-0.7662705,71.1874326\PG=C01
  [X(C6H7N1O1)]\NImag=0\\0.75703185,0.02399492,0.68569697,-0.00318265,-
 0.00234452,0.11414907,-0.00935824,0.03589635,0.00017419,0.69480746,0.0
 4018548,-0.06227668,0.00022117,-0.00791553,0.69426361,-0.00097297,-0.0
 0034706,0.00029454,0.00276541,0.00113607,0.16492221,-0.12483318,0.0089
 6564,0.00036606,-0.06740050,0.03405417,0.00077277,0.65458362,-0.069490
 94,-0.31956465,0.00118757,-0.02840596,0.08639964,-0.00064720,0.0391740
 7,0.70791803,0.00058193,0.00050444,-0.06472563,-0.00014118,-0.00057118
 ,-0.00795570,-0.00343926,-0.00181540,0.15762548,-0.29589079,0.06156229
 ,0.00090759,0.03399139,-0.09378800,0.00040003,0.04047516,0.09488299,-0
 .00062032,0.68751172,0.13274163,-0.18514793,0.00004610,-0.03483930,-0.
 02339518,0.00109984,0.03013876,-0.02879380,-0.00008062,0.00120394,0.74
 538789,0.00033181,0.00041617,-0.05734650,-0.00028196,0.00017626,-0.000
 90500,-0.00036752,-0.00030869,-0.00146684,-0.00267055,-0.00364587,0.14
 150002,-0.05897652,0.03079977,0.00011525,-0.12673334,0.04744731,0.0007
 1674,-0.01673207,-0.04297589,0.00027199,-0.30708373,-0.12954668,0.0019
 8257,0.75532070,-0.02495602,0.06501828,-0.00031589,-0.02081711,-0.3080
 1526,-0.00069446,-0.03474694,-0.05905707,0.00048368,-0.05929915,-0.178
 42613,0.00112265,-0.01758519,0.67638841,-0.00014175,0.00022401,0.00660
 604,-0.00014797,0.00088633,-0.06529194,0.00001236,-0.00027089,-0.00033
 401,0.00284890,0.00165537,-0.05697681,-0.00439982,-0.00448894,0.117625
 92,0.02884663,-0.07547035,0.00008340,-0.25422749,0.05857564,0.00000861
 ,-0.27127877,-0.06076196,0.00157869,-0.06949493,0.00210960,0.00031567,
 0.03409841,0.06729611,-0.00005157,0.70823405,-0.02614117,-0.01999031,0
 .00027928,0.12587368,-0.19364107,0.00126174,-0.13877330,-0.19412948,0.
 00125701,-0.00128782,-0.00323734,-0.00000145,0.02668678,-0.02164116,0.
 00027226,0.00824198,0.74457959,0.00010246,-0.00017016,0.00522224,0.000
 28514,-0.00039395,-0.05919079,0.00282328,0.00165238,-0.05652500,-0.000
 20786,0.00001615,0.00179381,0.00011870,-0.00004057,0.00372785,-0.00572
 268,-0.00213167,0.10869458,-0.00385598,0.01873388,0.00002387,0.0059795
 9,-0.01031437,0.00020190,-0.22623462,0.03488676,0.00129312,0.00127302,
 -0.00333102,0.00005267,-0.00535057,0.00593258,-0.00009530,-0.05816022,
 0.02866832,0.00027589,0.35049254,0.05704522,-0.03796685,-0.00026135,-0
 .00227764,-0.00683053,0.00019446,0.08223251,-0.13938154,-0.00028726,-0
 .01237097,-0.00491853,0.00006855,0.00767367,0.00271266,0.00007882,-0.0
 0651590,0.01208136,0.00004915,-0.00454153,0.67170740,-0.00010907,0.000
 09148,0.00673568,-0.00001692,0.00010718,0.00838658,0.00095164,0.000095
 95,-0.04329604,0.00008714,0.00007349,0.00499286,-0.00003191,-0.0000487
 3,-0.00138361,0.00053539,-0.00020944,0.00847855,-0.00260513,-0.0035026
 0,0.02800882,-0.00770593,-0.00723325,-0.00009383,-0.25184010,-0.070494
 10,0.01867164,0.00945381,0.00905209,0.00015946,0.00316228,0.00501244,-
 0.00101755,-0.00619197,-0.02233006,0.00051061,-0.05940699,-0.01656195,
 0.00264299,-0.00425229,0.00056486,0.00009002,0.65392720,-0.00798991,0.
 00336405,-0.00000269,-0.07147322,-0.16000685,0.01018520,0.00251729,-0.
 00889290,-0.00142112,0.01284644,-0.00379412,0.00079673,-0.05075431,-0.
 03486178,0.00287235,0.01320153,0.01888584,-0.00101069,0.00126422,0.001
 55543,0.00010379,-0.07245044,0.74437802,0.00326610,0.00136014,-0.00149
 007,-0.02731863,-0.01580619,-0.04343038,-0.00321961,-0.00009645,0.0058
 8784,-0.00237829,-0.00223054,0.00536327,0.00030632,0.00730814,0.007848
 02,0.00585600,-0.00365798,0.00783867,0.00009220,-0.00036801,-0.0001719
 2,0.14172445,0.08079559,0.15504411,-0.00563762,0.00188211,0.00005524,-
 0.00080614,0.00023609,-0.00002341,0.00219411,0.04502276,-0.00033233,0.
 00083076,0.00125400,0.00000413,0.00005754,-0.00031290,0.00000565,-0.00
 078111,0.00371241,-0.00001894,-0.06368424,-0.12223666,0.00117809,0.000
 49731,-0.00005434,-0.00004521,0.06992594,0.00254483,0.00206720,0.00000
 109,0.00016377,-0.00101096,0.00000885,0.00000519,-0.02399546,0.0000796
 8,-0.00033467,-0.00070792,0.00000481,-0.00051408,0.00053983,-0.0000082
 1,-0.00226329,0.00191636,0.00003018,-0.07172713,-0.50266939,0.00342830
 ,-0.00056632,0.00010684,0.00003586,0.07130139,0.52429226,0.00005828,-0
 .00000114,0.00204004,0.00001323,0.00000594,-0.00067055,-0.00003283,-0.
 00035756,-0.00279469,0.00001189,-0.00001584,0.00169763,-0.00000131,-0.
 00000344,0.00002132,-0.00004855,0.00003599,-0.00079921,0.00086630,0.00
 389269,-0.00410663,-0.00000465,0.00000797,0.00002030,-0.00085445,-0.00
 358343,0.00532479,-0.27856279,-0.12047468,0.00178247,0.00009915,0.0005
 5037,0.00001368,0.00140306,0.00287489,-0.00000753,-0.01620799,-0.01395
 703,0.00016867,-0.00197852,0.00377760,0.00000876,0.00104012,0.00043253
 ,0.00002846,0.00108938,-0.00048740,-0.00002264,0.00005409,-0.00017138,
 -0.00005670,0.00010300,0.00001065,-0.00000486,0.29249650,-0.11960630,-
 0.12124285,0.00113725,0.00108234,-0.00114392,0.00000412,-0.02739720,-0
 .00910469,0.00020783,0.01614694,0.01212014,-0.00014919,0.00299012,-0.0
 0110441,0.00003917,0.00113707,-0.00544455,0.00001916,-0.00086479,0.002
 64083,-0.00000930,-0.00011889,0.00035048,-0.00003543,-0.00004769,0.000
 29914,-0.00000405,0.12808601,0.12190750,0.00181926,0.00116655,-0.02836
 353,-0.00005540,-0.00000667,-0.00111988,0.00012638,-0.00002424,0.00260
 929,-0.00000808,0.00005015,0.00100049,0.00002501,0.00003215,0.00682373
 ,0.00005809,0.00002494,0.00530597,-0.00004113,-0.00000377,-0.00307049,
 0.00008413,0.00001148,-0.00036053,-0.00000756,-0.00000496,-0.00060266,
 -0.00193293,-0.00121489,0.02137535,0.00517206,0.02712746,-0.00015487,-
 0.00449495,-0.00228728,0.00022945,-0.00388180,0.00182375,0.00003704,-0
 .05951444,-0.00519744,0.00001702,0.00415043,-0.02761980,0.00021480,-0.
 00102620,0.00009807,-0.00001023,-0.00000965,0.00189726,-0.00000396,0.0
 0033411,-0.00143518,-0.00027922,-0.00033623,0.00017569,0.00000456,0.00
 115537,-0.00084739,-0.00002464,0.05740740,-0.00278556,-0.01071926,0.00
 011450,-0.00208335,0.00134857,0.00006063,0.00217549,0.00155254,0.00005
 129,-0.00535067,-0.34069632,0.00185049,0.00230747,-0.00965974,0.000097
 54,-0.00005340,0.00045594,-0.00001760,0.00033426,-0.00131792,0.0000023
 3,-0.00027038,-0.00100767,-0.00000115,0.00017463,0.00002406,-0.0000054
 0,-0.00006203,0.00077708,-0.00003953,0.00568003,0.35859585,0.00011193,
 -0.00012602,0.00416175,0.00006240,-0.00001993,0.00786443,0.00007929,0.
 00007221,0.00799590,-0.00008061,0.00188695,-0.04029698,0.00002010,0.00
 029974,0.00421372,-0.00002926,-0.00005815,-0.00155496,-0.00000435,0.00
 000263,-0.00002282,0.00011421,0.00004289,-0.00008274,-0.00000208,-0.00
 000075,-0.00020186,-0.00002732,-0.00002227,-0.00437375,-0.00014854,-0.
 00207982,0.02741572,-0.00249294,-0.00366582,0.00006237,0.00267601,-0.0
 0343889,-0.00004203,0.00027382,-0.00085572,0.00001511,-0.01722246,0.01
 562333,0.00003207,-0.26358020,0.12636867,0.00051110,0.00101017,-0.0006
 8132,0.00000686,-0.00015963,0.00034728,-0.00000363,0.00167238,-0.00096
 901,0.00011529,-0.00002566,-0.00000216,0.00000032,-0.00088066,0.000788
 10,0.00000209,0.00116324,0.00003104,-0.00003929,0.27677001,-0.00297902
 ,-0.00057011,0.00007875,0.02674421,-0.01114975,0.00004822,-0.00125326,
 -0.00132297,-0.00000369,-0.01486291,0.01171971,0.00003557,0.12562602,-
 0.13496378,0.00000444,-0.00117067,-0.00527503,0.00011081,0.00022538,0.
 00035651,-0.00000836,0.00170263,0.00148450,0.00007436,-0.00013989,0.00
 002294,-0.00000074,-0.00070494,0.00044167,-0.00000548,0.00074848,0.000
 77162,-0.00004146,-0.13449787,0.13908381,0.00008111,0.00005547,0.00694
 847,-0.00012652,0.00010883,0.00269842,-0.00004766,0.00002037,-0.000682
 75,0.00010812,-0.00017135,0.00125650,0.00070240,0.00020174,-0.03095137
 ,0.00005987,0.00004130,0.00567710,0.00003593,-0.00003113,-0.00054073,0
 .00053249,-0.00059240,-0.00276183,-0.00000132,0.00000509,-0.00014043,0
 .00001053,-0.00000472,0.00055963,-0.00002573,-0.00002568,-0.00442931,-
 0.00050963,0.00009538,0.02294468,0.00094308,0.00002774,-0.00011164,-0.
 02938563,0.01542079,-0.01062824,-0.00092194,0.00112373,0.00032218,-0.0
 0092655,-0.00003063,0.00100844,0.00250265,0.00285083,0.00070165,-0.001
 23128,-0.00430708,-0.00070901,-0.00029236,-0.00029077,0.00003274,-0.27
 751151,0.15189629,-0.11326301,0.00004178,-0.00004003,-0.00000590,0.000
 02708,-0.00006712,-0.00010492,0.00008549,0.00008955,-0.00004900,0.0004
 3176,-0.00074068,-0.00078549,0.30336703,-0.00067803,-0.00028582,-0.000
 06279,-0.01445986,0.01417772,-0.00735575,0.00011854,0.00080265,0.00029
 865,0.00062066,0.00015907,-0.00053777,-0.00296666,0.00011667,-0.000441
 93,-0.00361486,-0.00165885,0.00043498,-0.00052077,0.00000356,-0.000019
 59,0.15916164,-0.17493260,0.06661788,0.00006348,-0.00006859,-0.0000038
 4,0.00003317,-0.00002133,0.00015202,0.00003168,-0.00003549,0.00001960,
 0.00107135,-0.00029785,0.00040308,-0.16321589,0.17325970,-0.00066353,-
 0.00105016,-0.00006360,0.01507416,0.00174060,-0.00438682,0.00172032,0.
 00073129,0.00158814,-0.00000448,0.00033295,-0.00058669,-0.00013874,-0.
 00185123,-0.00002120,-0.00146094,0.00123399,0.00199477,0.00000658,0.00
 005095,-0.00025423,-0.15050690,0.08100500,-0.06488763,0.00001915,-0.00
 001215,0.00002185,0.00002091,0.00000182,0.00002510,0.00002307,-0.00003
 376,-0.00000393,-0.00021247,-0.00033303,-0.00015931,0.12245827,-0.0746
 0441,0.06572268,-0.00009768,0.00006048,-0.00011159,0.00202144,-0.03408
 396,-0.01206729,0.00003846,-0.00011075,0.00016795,0.00055728,-0.001333
 18,0.00042356,-0.00507150,-0.00088691,-0.00005505,0.00056594,-0.001315
 90,0.00034457,0.00009503,0.00008918,-0.00002809,-0.06388688,0.02236100
 ,-0.00499644,-0.00005872,-0.00000256,0.00000692,-0.00002795,0.00006971
 ,0.00006133,-0.00035243,-0.00018404,0.00000105,0.00014345,-0.00007514,
 -0.00002928,0.00270096,0.02445159,0.01367358,0.06366744,0.00086380,0.0
 0070170,-0.00009564,-0.00431884,-0.01732152,-0.00490966,-0.00095959,-0
 .00070248,0.00126748,-0.00013999,-0.00083237,0.00016735,-0.00192736,0.
 00240217,-0.00088440,0.00386018,0.00169378,0.00066973,0.00040665,-0.00
 008927,-0.00007854,0.01576352,-0.38789445,-0.13412402,-0.00004610,0.00
 005070,-0.00000396,-0.00002365,0.00002614,-0.00014695,-0.00018732,0.00
 000220,0.00002206,-0.00000052,0.00024817,-0.00010491,-0.00268283,-0.01
 139273,-0.00727088,-0.00994774,0.41315005,-0.00137836,0.00018796,-0.00
 001860,0.00964581,0.01253934,-0.00423222,0.00034393,-0.00045288,-0.000
 46878,0.00162929,0.00098773,0.00143928,0.00026231,-0.00203951,0.002033
 83,-0.00152113,0.00091634,-0.00023689,-0.00008646,0.00015055,0.0000373
 3,-0.01266183,-0.17362168,-0.06583864,0.00001326,-0.00001970,-0.000002
 43,0.00001788,0.00001951,-0.00012536,0.00012583,0.00002660,-0.00016925
 ,0.00006349,-0.00005289,-0.00048392,0.00124390,0.01510001,0.00156386,0
 .00261374,0.14628615,0.06663415,-0.00458195,-0.00220653,0.00008413,0.0
 0467137,0.02585227,-0.00004628,0.00286084,-0.02623982,0.00011314,-0.00
 146070,0.00015158,0.00000096,-0.00443131,0.00232829,0.00007763,-0.0581
 8833,-0.00464524,0.00004037,0.00307002,-0.00112911,-0.00005368,0.00169
 449,0.00121100,0.00019675,-0.00232071,0.00124870,-0.00000895,0.0001901
 7,-0.00135091,-0.00000163,0.00014761,-0.00000306,-0.00000852,0.0002207
 4,0.00137767,-0.00000483,0.00016945,-0.00009603,-0.00000899,-0.0002948
 4,-0.00066021,-0.00031165,0.05825316,-0.00274895,0.00091625,0.00001717
 ,-0.00316954,-0.01139780,-0.00004500,0.00374862,-0.01172783,0.00002920
 ,0.00017091,0.00056283,0.00000439,0.00273903,0.00055132,-0.00003593,-0
 .00457168,-0.33459507,0.00078209,0.00084756,0.00211628,-0.00002596,-0.
 00123178,0.00126519,0.00012779,-0.00080929,-0.00086700,0.00003681,0.00
 011589,-0.00050123,0.00000920,-0.00000800,-0.00009147,0.00000233,-0.00
 011847,-0.00054942,-0.00000108,-0.00003389,0.00017390,0.00005902,0.000
 90821,-0.00004208,-0.00002754,0.00416139,0.35418613,0.00009547,0.00003
 284,0.00585011,0.00006823,-0.00012381,0.00301710,-0.00008915,0.0002135
 4,0.00254278,-0.00002277,-0.00000452,-0.00146506,0.00005038,0.00003467
 ,0.00605853,0.00033842,0.00073584,-0.03042670,-0.00001610,-0.00003368,
 -0.00379333,-0.00024525,0.00082758,-0.00297845,0.00000977,0.00003533,0
 .00019255,0.00000063,0.00001099,0.00031663,-0.00000459,-0.00000046,-0.
 00051592,-0.00000166,-0.00000187,0.00006485,-0.00010997,-0.00000015,-0
 .00055301,-0.00000495,-0.00079382,-0.00013237,-0.00006846,-0.00093249,
 0.02182230\\0.00000082,-0.00000111,0.00000999,-0.00000900,0.00000537,-
 0.00000370,-0.00000378,-0.00000362,0.00000638,0.00000486,-0.00000022,0
 .00000648,0.00000311,0.00000147,-0.00000379,-0.00000137,-0.00000190,-0
 .00000199,-0.00000118,-0.00000516,0.00000849,-0.00000046,-0.00000399,-
 0.00001492,-0.00000317,-0.00000501,0.00000504,0.00000251,-0.00000482,0
 .00001637,0.00000525,-0.00000102,0.00001080,0.00000355,0.00000331,-0.0
 0000299,0.00000398,0.00000960,-0.00001208,-0.00000075,0.00000684,-0.00
 001784,-0.00000437,0.00000025,-0.00000626\\\@


 HE THAT RISETH LATE MUST TROT ALL DAY.

                  -- BENJAMIN FRANKLIN
 Job cpu time:  0 days  1 hours 14 minutes 38.0 seconds.
 File lengths (MBytes):  RWF=    105 Int=      0 D2E=      0 Chk=     11 Scr=      1
 Normal termination of Gaussian 09 at Fri Jan 22 07:27:06 2016.

g09 job started: Fri Jan 22 06:55:16 CST 2016
g09 job finished: Fri Jan 22 07:27:06 CST 2016
Elapsed time: 1910
