 Entering Gaussian System, Link 0=g09
 Initial command:
 /public/software/g09/l1.exe /tmp/Gau-7464.inp -scrdir=/tmp/
 Entering Link 1 = /public/software/g09/l1.exe PID=      7465.
  
 Copyright (c) 1988,1990,1992,1993,1995,1998,2003,2009, Gaussian, Inc.
                  All Rights Reserved.
  
 This is part of the Gaussian(R) 09 program.  It is based on
 the Gaussian(R) 03 system (copyright 2003, Gaussian, Inc.),
 the Gaussian(R) 98 system (copyright 1998, Gaussian, Inc.),
 the Gaussian(R) 94 system (copyright 1995, Gaussian, Inc.),
 the Gaussian 92(TM) system (copyright 1992, Gaussian, Inc.),
 the Gaussian 90(TM) system (copyright 1990, Gaussian, Inc.),
 the Gaussian 88(TM) system (copyright 1988, Gaussian, Inc.),
 the Gaussian 86(TM) system (copyright 1986, Carnegie Mellon
 University), and the Gaussian 82(TM) system (copyright 1983,
 Carnegie Mellon University). Gaussian is a federally registered
 trademark of Gaussian, Inc.
  
 This software contains proprietary and confidential information,
 including trade secrets, belonging to Gaussian, Inc.
  
 This software is provided under written license and may be
 used, copied, transmitted, or stored only in accord with that
 written license.
  
 The following legend is applicable only to US Government
 contracts under FAR:
  
                    RESTRICTED RIGHTS LEGEND
  
 Use, reproduction and disclosure by the US Government is
 subject to restrictions as set forth in subparagraphs (a)
 and (c) of the Commercial Computer Software - Restricted
 Rights clause in FAR 52.227-19.
  
 Gaussian, Inc.
 340 Quinnipiac St., Bldg. 40, Wallingford CT 06492
  
  
 ---------------------------------------------------------------
 Warning -- This program may not be used in any manner that
 competes with the business of Gaussian, Inc. or will provide
 assistance to any competitor of Gaussian, Inc.  The licensee
 of this program is prohibited from giving any competitor of
 Gaussian, Inc. access to this program.  By using this program,
 the user acknowledges that Gaussian, Inc. is engaged in the
 business of creating and licensing software in the field of
 computational chemistry and represents and warrants to the
 licensee that it is not a competitor of Gaussian, Inc. and that
 it will not use this program in any manner prohibited above.
 ---------------------------------------------------------------
  

 Cite this work as:
 Gaussian 09, Revision A.02,
 M. J. Frisch, G. W. Trucks, H. B. Schlegel, G. E. Scuseria, 
 M. A. Robb, J. R. Cheeseman, G. Scalmani, V. Barone, B. Mennucci, 
 G. A. Petersson, H. Nakatsuji, M. Caricato, X. Li, H. P. Hratchian, 
 A. F. Izmaylov, J. Bloino, G. Zheng, J. L. Sonnenberg, M. Hada, 
 M. Ehara, K. Toyota, R. Fukuda, J. Hasegawa, M. Ishida, T. Nakajima, 
 Y. Honda, O. Kitao, H. Nakai, T. Vreven, J. A. Montgomery, Jr., 
 J. E. Peralta, F. Ogliaro, M. Bearpark, J. J. Heyd, E. Brothers, 
 K. N. Kudin, V. N. Staroverov, R. Kobayashi, J. Normand, 
 K. Raghavachari, A. Rendell, J. C. Burant, S. S. Iyengar, J. Tomasi, 
 M. Cossi, N. Rega, J. M. Millam, M. Klene, J. E. Knox, J. B. Cross, 
 V. Bakken, C. Adamo, J. Jaramillo, R. Gomperts, R. E. Stratmann, 
 O. Yazyev, A. J. Austin, R. Cammi, C. Pomelli, J. W. Ochterski, 
 R. L. Martin, K. Morokuma, V. G. Zakrzewski, G. A. Voth, 
 P. Salvador, J. J. Dannenberg, S. Dapprich, A. D. Daniels, 
 O. Farkas, J. B. Foresman, J. V. Ortiz, J. Cioslowski, 
 and D. J. Fox, Gaussian, Inc., Wallingford CT, 2009.
 
 ******************************************
 Gaussian 09:  EM64L-G09RevA.02 11-Jun-2009
                 9-Oct-2015 
 ******************************************
 %nprocshared=8
 Will use up to    8 processors via shared memory.
 %mem=8GB
 %chk=SO4-_radical.chk
 --------------------------------------------------------------
 # opt=calcfc freq 6-311++g(d,p) scrf=(smd,solvent=water) m062x
 --------------------------------------------------------------
 1/10=4,14=-1,18=20,19=15,26=3,38=1/1,3;
 2/9=110,12=2,17=6,18=5,40=1/2;
 3/5=4,6=6,7=1111,11=2,16=1,25=1,30=1,70=32201,71=2,72=1,74=-55/1,2,3;
 4//1;
 5/5=2,38=5,53=1/2;
 8/6=4,10=90,11=11/1;
 11/6=1,8=1,9=11,15=111,16=1/1,2,10;
 10/6=1,7=6,13=1/2;
 6/7=2,8=2,9=2,10=2,28=1/1;
 7/10=1,18=20,25=1/1,2,3,16;
 1/10=4,14=-1,18=20,19=15/3(2);
 2/9=110/2;
 99//99;
 2/9=110/2;
 3/5=4,6=6,7=1111,11=2,16=1,25=1,30=1,70=32205,71=1,72=1,74=-55/1,2,3;
 4/5=5,16=3/1;
 5/5=2,38=5,53=1/2;
 7//1,2,3,16;
 1/14=-1,18=20,19=15/3(-5);
 2/9=110/2;
 6/7=2,8=2,9=2,10=2,19=2,28=1/1;
 99/9=1/99;
 ------
 SO4-_m
 ------
 Symbolic Z-matrix:
 Charge = -1 Multiplicity = 2
 S                     0.08917  -0.00001  -0.00028 
 O                     0.88321   1.23232  -0.00019 
 O                     0.88363  -1.23203   0.00036 
 O                    -0.97271  -0.00044  -1.10577 
 O                    -0.97247   0.00017   1.10616 
 

 GradGradGradGradGradGradGradGradGradGradGradGradGradGradGradGradGradGrad
 Berny optimization.
 Initialization pass.
                           ----------------------------
                           !    Initial Parameters    !
                           ! (Angstroms and Degrees)  !
 --------------------------                            --------------------------
 ! Name  Definition              Value          Derivative Info.                !
 --------------------------------------------------------------------------------
 ! R1    R(1,2)                  1.466          calculate D2E/DX2 analytically  !
 ! R2    R(1,3)                  1.466          calculate D2E/DX2 analytically  !
 ! R3    R(1,4)                  1.5329         calculate D2E/DX2 analytically  !
 ! R4    R(1,5)                  1.5334         calculate D2E/DX2 analytically  !
 ! A1    A(2,1,3)              114.3888         calculate D2E/DX2 analytically  !
 ! A2    A(2,1,4)              112.0551         calculate D2E/DX2 analytically  !
 ! A3    A(2,1,5)              112.0158         calculate D2E/DX2 analytically  !
 ! A4    A(3,1,4)              112.0553         calculate D2E/DX2 analytically  !
 ! A5    A(3,1,5)              112.0239         calculate D2E/DX2 analytically  !
 ! A6    A(4,1,5)               92.3363         calculate D2E/DX2 analytically  !
 ! D1    D(2,1,4,3)            130.1545         calculate D2E/DX2 analytically  !
 ! D2    D(2,1,5,3)           -130.093          calculate D2E/DX2 analytically  !
 ! D3    D(2,1,5,4)            114.9525         calculate D2E/DX2 analytically  !
 ! D4    D(3,1,5,4)           -114.9545         calculate D2E/DX2 analytically  !
 --------------------------------------------------------------------------------
 Trust Radius=3.00D-01 FncErr=1.00D-07 GrdErr=1.00D-06
 Number of steps in this run=  24 maximum allowed number of steps= 100.
 GradGradGradGradGradGradGradGradGradGradGradGradGradGradGradGradGradGrad

                          Input orientation:                          
 ---------------------------------------------------------------------
 Center     Atomic      Atomic             Coordinates (Angstroms)
 Number     Number       Type             X           Y           Z
 ---------------------------------------------------------------------
      1         16           0        0.089171   -0.000009   -0.000279
      2          8           0        0.883212    1.232315   -0.000185
      3          8           0        0.883630   -1.232028    0.000358
      4          8           0       -0.972714   -0.000437   -1.105772
      5          8           0       -0.972470    0.000167    1.106157
 ---------------------------------------------------------------------
                    Distance matrix (angstroms):
                    1          2          3          4          5
     1  S    0.000000
     2  O    1.465989   0.000000
     3  O    1.465959   2.464343   0.000000
     4  O    1.532878   2.487260   2.487238   0.000000
     5  O    1.533389   2.487114   2.487208   2.211929   0.000000
 Stoichiometry    O4S(1-,2)
 Framework group  C1[X(O4S)]
 Deg. of freedom     9
 Full point group                 C1      NOp   1
 Largest Abelian subgroup         C1      NOp   1
 Largest concise Abelian subgroup C1      NOp   1
                         Standard orientation:                         
 ---------------------------------------------------------------------
 Center     Atomic      Atomic             Coordinates (Angstroms)
 Number     Number       Type             X           Y           Z
 ---------------------------------------------------------------------
      1         16           0        0.089171   -0.000009   -0.000279
      2          8           0        0.883211    1.232316   -0.000185
      3          8           0        0.883631   -1.232027    0.000358
      4          8           0       -0.972714   -0.000438   -1.105772
      5          8           0       -0.972470    0.000166    1.106157
 ---------------------------------------------------------------------
 Rotational constants (GHZ):      5.7627817      5.3417620      4.8571300
 Standard basis: 6-311++G(d,p) (5D, 7F)
 There are   118 symmetry adapted basis functions of A   symmetry.
 Integral buffers will be    131072 words long.
 Raffenetti 2 integral format.
 Two-electron integral symmetry is turned on.
   118 basis functions,   194 primitive gaussians,   123 cartesian basis functions
    25 alpha electrons       24 beta electrons
       nuclear repulsion energy       264.2908963554 Hartrees.
 NAtoms=    5 NActive=    5 NUniq=    5 SFac= 7.50D-01 NAtFMM=   80 NAOKFM=F Big=F
 ------------------------------------------------------------------------------
 Polarizable Continuum Model (PCM)
 =================================
 Model                : PCM.
 Atomic radii         : SMD-Coulomb.
 Polarization charges : Total charges.
 Charge compensation  : None.
 Solution method      : Matrix inversion.
 Cavity type          : VdW (van der Waals Surface) (Alpha=1.000).
 Cavity algorithm     : GePol (No added spheres)
                        Default sphere list used, NSphG=    5.
                        Lebedev-Laikov grids with approx.  5.0 points / Ang**2.
                        Smoothing algorithm: Karplus/York (Gamma=1.0000).
                        Polarization charges: spherical gaussians, with
                                              point-specific exponents (IZeta= 3).
                        Self-potential: point-specific (ISelfS= 7).
                        Self-field    : sphere-specific E.n sum rule (ISelfD= 2).
 1st derivatives      : Analytical E(r).r(x)/FMM algorithm (CHGder, D1EAlg=3).
                        Cavity 1st derivative terms included.
 2nd derivatives      : Analytical E(r).r(xy)/FMM algorithm (CHGder, D2EAlg=3).
                        Cavity 2nd derivative terms included.
 Solvent              : Water, Eps=  78.355300 Eps(inf)=   1.777849
 ------------------------------------------------------------------------------
 Spheres list:
 ISph  on   Nord    Re0     Alpha      Xe            Ye            Ze
    1   S      1    2.490   1.000      0.089171     -0.000009     -0.000279
    2   O      2    1.520   1.000      0.883211      1.232316     -0.000185
    3   O      3    1.520   1.000      0.883631     -1.232027      0.000358
    4   O      4    1.520   1.000     -0.972714     -0.000438     -1.105772
    5   O      5    1.520   1.000     -0.972470      0.000166      1.106157
 ------------------------------------------------------------------------------
 ------------------------------------------------------------------------------
 Atomic radii for non-electrostatic terms: SMD-CDS.
 ------------------------------------------------------------------------------
 Nuclear repulsion after PCM non-electrostatic terms =      264.2908168614 Hartrees.
 One-electron integrals computed using PRISM.
 NBasis=   118 RedAO= T  NBF=   118
 NBsUse=   118 1.00D-06 NBFU=   118
 Harris functional with IExCor= 1009 diagonalized for initial guess.
 ExpMin= 4.05D-02 ExpMax= 9.34D+04 ExpMxC= 3.17D+03 IAcc=2 IRadAn=         0 AccDes= 0.00D+00
 HarFok:  IExCor= 1009 AccDes= 0.00D+00 IRadAn=         0 IDoV= 1
 ScaDFX=  1.000000  1.000000  1.000000  1.000000
 FoFCou: FMM=F IPFlag=           0 FMFlag=      100000 FMFlg1=           0
         NFxFlg=           0 DoJE=T BraDBF=F KetDBF=T FulRan=T
         Omega=  0.000000  0.000000  1.000000  0.000000  0.000000 ICntrl=     500 IOpCl=  0
         NMat0=    1 NMatS0=    1 NMatT0=    0 NMatD0=    1 NMtDS0=    0 NMtDT0=    0
         I1Cent=           4 NGrid=           0.
 Petite list used in FoFCou.
 Initial guess orbital symmetries:
 Alpha Orbitals:
       Occupied  (A) (A) (A) (A) (A) (A) (A) (A) (A) (A) (A) (A)
                 (A) (A) (A) (A) (A) (A) (A) (A) (A) (A) (A) (A)
                 (A)
       Virtual   (A) (A) (A) (A) (A) (A) (A) (A) (A) (A) (A) (A)
                 (A) (A) (A) (A) (A) (A) (A) (A) (A) (A) (A) (A)
                 (A) (A) (A) (A) (A) (A) (A) (A) (A) (A) (A) (A)
                 (A) (A) (A) (A) (A) (A) (A) (A) (A) (A) (A) (A)
                 (A) (A) (A) (A) (A) (A) (A) (A) (A) (A) (A) (A)
                 (A) (A) (A) (A) (A) (A) (A) (A) (A) (A) (A) (A)
                 (A) (A) (A) (A) (A) (A) (A) (A) (A) (A) (A) (A)
                 (A) (A) (A) (A) (A) (A) (A) (A) (A)
 Beta  Orbitals:
       Occupied  (A) (A) (A) (A) (A) (A) (A) (A) (A) (A) (A) (A)
                 (A) (A) (A) (A) (A) (A) (A) (A) (A) (A) (A) (A)
       Virtual   (A) (A) (A) (A) (A) (A) (A) (A) (A) (A) (A) (A)
                 (A) (A) (A) (A) (A) (A) (A) (A) (A) (A) (A) (A)
                 (A) (A) (A) (A) (A) (A) (A) (A) (A) (A) (A) (A)
                 (A) (A) (A) (A) (A) (A) (A) (A) (A) (A) (A) (A)
                 (A) (A) (A) (A) (A) (A) (A) (A) (A) (A) (A) (A)
                 (A) (A) (A) (A) (A) (A) (A) (A) (A) (A) (A) (A)
                 (A) (A) (A) (A) (A) (A) (A) (A) (A) (A) (A) (A)
                 (A) (A) (A) (A) (A) (A) (A) (A) (A) (A)
 The electronic state of the initial guess is 2-A.
 Initial guess <Sx>= 0.0000 <Sy>= 0.0000 <Sz>= 0.5000 <S**2>= 0.7500 S= 0.5000
 Requested convergence on RMS density matrix=1.00D-08 within 128 cycles.
 Requested convergence on MAX density matrix=1.00D-06.
 Requested convergence on             energy=1.00D-06.
 No special actions if energy rises.
 Keep R1 and R2 ints in memory in canonical form, NReq=61631700.
 Error on total polarization charges =  0.03378
 SCF Done:  E(UM062X) =  -699.113285071     A.U. after   18 cycles
             Convg  =    0.3006D-08             -V/T =  2.0018
 <Sx>= 0.0000 <Sy>= 0.0000 <Sz>= 0.5000 <S**2>= 0.7626 S= 0.5063
 <L.S>= 0.000000000000E+00
 SMD-CDS (non-electrostatic) energy             (kcal/mol) =      -0.05
 (included in total energy above)
 Annihilation of the first spin contaminant:
 S**2 before annihilation     0.7626,   after     0.7501
 Range of M.O.s used for correlation:     1   118
 NBasis=   118 NAE=    25 NBE=    24 NFC=     0 NFV=     0
 NROrb=    118 NOA=    25 NOB=    24 NVA=    93 NVB=    94

 **** Warning!!: The largest alpha MO coefficient is  0.14483136D+02


 **** Warning!!: The largest beta MO coefficient is  0.14726661D+02

 Symmetrizing basis deriv contribution to polar:
 IMax=3 JMax=2 DiffMx= 0.00D+00
 G2DrvN: will do     6 centers at a time, making    1 passes doing MaxLOS=2.
 Calling FoFCou, ICntrl=  3107 FMM=F I1Cent=   0 AccDes= 0.00D+00.
 FoFDir/FoFCou used for L=0 through L=2.
 G2PCM: DoFxE=T DoFxN=T DoGrad=T DoPD/DQ/DG=FFF NFrqRd=   0 IEInf=0 DoCFld=F IF1Alg=4.
 End of G2Drv Frequency-dependent properties file   721 does not exist.
 End of G2Drv Frequency-dependent properties file   722 does not exist.
          IDoAtm=11111
 NEqPCM:  Using equilibrium solvation (IEInf=0, Eps=  78.3553, EpsInf=   1.7778)
          Differentiating once with respect to nuclear coordinates.
          Keep R1 and R2 ints in memory in canonical form, NReq=58985617.
          There are    18 degrees of freedom in the 1st order CPHF.  IDoFFX=5.
     12 vectors produced by pass  0 Test12= 2.55D-10 5.56D-07 XBig12= 8.95D-01 6.69D-01.
 AX will form    12 AO Fock derivatives at one time.
     12 vectors produced by pass  1 Test12= 2.55D-10 5.56D-07 XBig12= 4.64D-01 1.66D-01.
     12 vectors produced by pass  2 Test12= 2.55D-10 5.56D-07 XBig12= 1.70D-01 2.16D-01.
     12 vectors produced by pass  3 Test12= 2.55D-10 5.56D-07 XBig12= 4.76D-03 1.07D-02.
     12 vectors produced by pass  4 Test12= 2.55D-10 5.56D-07 XBig12= 1.59D-04 2.27D-03.
     12 vectors produced by pass  5 Test12= 2.55D-10 5.56D-07 XBig12= 2.88D-06 5.30D-04.
     10 vectors produced by pass  6 Test12= 2.55D-10 5.56D-07 XBig12= 5.48D-08 5.36D-05.
      3 vectors produced by pass  7 Test12= 2.55D-10 5.56D-07 XBig12= 9.48D-10 6.56D-06.
      1 vectors produced by pass  8 Test12= 2.55D-10 5.56D-07 XBig12= 1.27D-11 7.84D-07.
 Inverted reduced A of dimension    86 with in-core refinement.
 End of Minotr Frequency-dependent properties file   721 does not exist.
 End of Minotr Frequency-dependent properties file   722 does not exist.

 **********************************************************************

            Population analysis using the SCF density.

 **********************************************************************

 Orbital symmetries:
 Alpha Orbitals:
       Occupied  (A) (A) (A) (A) (A) (A) (A) (A) (A) (A) (A) (A)
                 (A) (A) (A) (A) (A) (A) (A) (A) (A) (A) (A) (A)
                 (A)
       Virtual   (A) (A) (A) (A) (A) (A) (A) (A) (A) (A) (A) (A)
                 (A) (A) (A) (A) (A) (A) (A) (A) (A) (A) (A) (A)
                 (A) (A) (A) (A) (A) (A) (A) (A) (A) (A) (A) (A)
                 (A) (A) (A) (A) (A) (A) (A) (A) (A) (A) (A) (A)
                 (A) (A) (A) (A) (A) (A) (A) (A) (A) (A) (A) (A)
                 (A) (A) (A) (A) (A) (A) (A) (A) (A) (A) (A) (A)
                 (A) (A) (A) (A) (A) (A) (A) (A) (A) (A) (A) (A)
                 (A) (A) (A) (A) (A) (A) (A) (A) (A)
 Beta  Orbitals:
       Occupied  (A) (A) (A) (A) (A) (A) (A) (A) (A) (A) (A) (A)
                 (A) (A) (A) (A) (A) (A) (A) (A) (A) (A) (A) (A)
       Virtual   (A) (A) (A) (A) (A) (A) (A) (A) (A) (A) (A) (A)
                 (A) (A) (A) (A) (A) (A) (A) (A) (A) (A) (A) (A)
                 (A) (A) (A) (A) (A) (A) (A) (A) (A) (A) (A) (A)
                 (A) (A) (A) (A) (A) (A) (A) (A) (A) (A) (A) (A)
                 (A) (A) (A) (A) (A) (A) (A) (A) (A) (A) (A) (A)
                 (A) (A) (A) (A) (A) (A) (A) (A) (A) (A) (A) (A)
                 (A) (A) (A) (A) (A) (A) (A) (A) (A) (A) (A) (A)
                 (A) (A) (A) (A) (A) (A) (A) (A) (A) (A)
 The electronic state is 2-A.
 Alpha  occ. eigenvalues --  -90.15188 -19.68115 -19.68091 -19.62811 -19.62809
 Alpha  occ. eigenvalues --   -8.48747  -6.41014  -6.40973  -6.40933  -1.31323
 Alpha  occ. eigenvalues --   -1.15818  -1.14024  -1.13418  -0.71000  -0.60825
 Alpha  occ. eigenvalues --   -0.60656  -0.58815  -0.51380  -0.46796  -0.46202
 Alpha  occ. eigenvalues --   -0.45135  -0.44599  -0.41048  -0.38443  -0.37387
 Alpha virt. eigenvalues --    0.01915   0.05169   0.05222   0.05241   0.12189
 Alpha virt. eigenvalues --    0.14682   0.14713   0.16965   0.18980   0.19032
 Alpha virt. eigenvalues --    0.19525   0.20727   0.24328   0.24522   0.25826
 Alpha virt. eigenvalues --    0.25875   0.25962   0.29326   0.29395   0.29493
 Alpha virt. eigenvalues --    0.30536   0.31174   0.33699   0.35554   0.39219
 Alpha virt. eigenvalues --    0.39946   0.41169   0.70963   0.72659   0.87648
 Alpha virt. eigenvalues --    0.97297   0.98628   0.99796   1.06701   1.09153
 Alpha virt. eigenvalues --    1.09827   1.12015   1.14247   1.15838   1.16221
 Alpha virt. eigenvalues --    1.17566   1.18160   1.23299   1.23571   1.23998
 Alpha virt. eigenvalues --    1.51530   1.55920   1.58944   1.70256   1.78600
 Alpha virt. eigenvalues --    1.85814   1.89848   2.80451   2.81019   2.81204
 Alpha virt. eigenvalues --    2.83344   2.85050   2.85470   2.86048   2.88040
 Alpha virt. eigenvalues --    2.89893   2.89975   2.92183   3.04085   3.11113
 Alpha virt. eigenvalues --    3.11580   3.19264   3.21631   3.29681   3.50815
 Alpha virt. eigenvalues --    3.59112   3.63316   5.01507   5.01708   5.04929
 Alpha virt. eigenvalues --    5.06346   5.07591   5.08874   5.09667   5.12123
 Alpha virt. eigenvalues --    5.13645   5.21002   5.36990   5.38333   8.25729
 Alpha virt. eigenvalues --   17.44403  17.55211  17.57648  49.90547  49.92549
 Alpha virt. eigenvalues --   49.95417  49.99908 189.46188
  Beta  occ. eigenvalues --  -90.15241 -19.67067 -19.67045 -19.62775 -19.62773
  Beta  occ. eigenvalues --   -8.48766  -6.41074  -6.41040  -6.40955  -1.30084
  Beta  occ. eigenvalues --   -1.14039  -1.13339  -1.10066  -0.69471  -0.59150
  Beta  occ. eigenvalues --   -0.58415  -0.58084  -0.45294  -0.45165  -0.44862
  Beta  occ. eigenvalues --   -0.42110  -0.40773  -0.36937  -0.36915
  Beta virt. eigenvalues --   -0.15479   0.02164   0.05337   0.05428   0.05512
  Beta virt. eigenvalues --    0.12761   0.14707   0.14859   0.17441   0.19408
  Beta virt. eigenvalues --    0.19927   0.19947   0.20992   0.24818   0.25223
  Beta virt. eigenvalues --    0.26074   0.26128   0.26349   0.29519   0.29693
  Beta virt. eigenvalues --    0.29703   0.30780   0.31631   0.34123   0.35747
  Beta virt. eigenvalues --    0.39384   0.40118   0.41252   0.72706   0.72711
  Beta virt. eigenvalues --    0.87732   0.98094   0.98851   1.00090   1.08918
  Beta virt. eigenvalues --    1.09487   1.10186   1.12375   1.14308   1.16462
  Beta virt. eigenvalues --    1.18068   1.18221   1.18345   1.23772   1.24674
  Beta virt. eigenvalues --    1.24854   1.52931   1.56037   1.61134   1.70900
  Beta virt. eigenvalues --    1.78182   1.85336   1.89258   2.81466   2.81766
  Beta virt. eigenvalues --    2.84147   2.87355   2.87855   2.87878   2.88217
  Beta virt. eigenvalues --    2.88279   2.90853   2.91352   2.93090   3.07068
  Beta virt. eigenvalues --    3.11559   3.12533   3.19385   3.22518   3.31066
  Beta virt. eigenvalues --    3.52548   3.59953   3.63374   5.02674   5.04121
  Beta virt. eigenvalues --    5.07560   5.07821   5.09181   5.10761   5.12912
  Beta virt. eigenvalues --    5.13093   5.13899   5.21980   5.37064   5.39089
  Beta virt. eigenvalues --    8.25716  17.44159  17.54905  17.57512  49.89812
  Beta virt. eigenvalues --   49.91707  49.95375  49.99761 189.46115
          Condensed to atoms (all electrons):
              1          2          3          4          5
     1  S   14.578465   0.195689   0.195608   0.199774   0.199327
     2  O    0.195689   8.711097  -0.242047  -0.108411  -0.108051
     3  O    0.195608  -0.242047   8.711116  -0.108446  -0.108059
     4  O    0.199774  -0.108411  -0.108446   8.423829  -0.038976
     5  O    0.199327  -0.108051  -0.108059  -0.038976   8.422676
 Mulliken atomic charges:
              1
     1  S    0.631136
     2  O   -0.448277
     3  O   -0.448172
     4  O   -0.367771
     5  O   -0.366917
 Sum of Mulliken atomic charges =  -1.00000
 Mulliken charges with hydrogens summed into heavy atoms:
              1
     1  S    0.631136
     2  O   -0.448277
     3  O   -0.448172
     4  O   -0.367771
     5  O   -0.366917
 Sum of Mulliken charges with hydrogens summed into heavy atoms =  -1.00000
          Atomic-Atomic Spin Densities.
              1          2          3          4          5
     1  S   -0.157408   0.045968   0.045978  -0.026536  -0.026653
     2  O    0.045968  -0.023202  -0.007337   0.004705   0.004663
     3  O    0.045978  -0.007337  -0.023223   0.004707   0.004665
     4  O   -0.026536   0.004705   0.004707   0.589703  -0.039296
     5  O   -0.026653   0.004663   0.004665  -0.039296   0.592400
 Mulliken atomic spin densities:
              1
     1  S   -0.118652
     2  O    0.024798
     3  O    0.024791
     4  O    0.533284
     5  O    0.535779
 Sum of Mulliken atomic spin densities =   1.00000
 APT atomic charges:
              1
     1  S    0.077085
     2  O   -0.295477
     3  O   -0.295358
     4  O   -0.243538
     5  O   -0.242713
 Sum of APT charges=  -1.00000
 APT Atomic charges with hydrogens summed into heavy atoms:
              1
     1  S    0.077085
     2  O   -0.295477
     3  O   -0.295358
     4  O   -0.243538
     5  O   -0.242713
 Sum of APT charges=  -1.00000
 Electronic spatial extent (au):  <R**2>=            350.7712
 Charge=             -1.0000 electrons
 Dipole moment (field-independent basis, Debye):
    X=             -0.5179    Y=             -0.0006    Z=              0.0029  Tot=              0.5179
 Quadrupole moment (field-independent basis, Debye-Ang):
   XX=            -43.9555   YY=            -44.5560   ZZ=            -39.3227
   XY=             -0.0001   XZ=             -0.0048   YZ=              0.0010
 Traceless Quadrupole moment (field-independent basis, Debye-Ang):
   XX=             -1.3441   YY=             -1.9446   ZZ=              3.2887
   XY=             -0.0001   XZ=             -0.0048   YZ=              0.0010
 Octapole moment (field-independent basis, Debye-Ang**2):
  XXX=             -1.4788  YYY=             -0.0051  ZZZ=              0.0115  XYY=             -8.2805
  XXY=              0.0020  XXZ=              0.0044  XZZ=              5.5077  YZZ=              0.0006
  YYZ=             -0.0002  XYZ=              0.0033
 Hexadecapole moment (field-independent basis, Debye-Ang**3):
 XXXX=           -168.2095 YYYY=           -161.4253 ZZZZ=           -122.7407 XXXY=              0.0016
 XXXZ=             -0.0084 YYYX=             -0.0017 YYYZ=              0.0032 ZZZX=             -0.0078
 ZZZY=              0.0009 XXYY=            -58.5263 XXZZ=            -52.2013 YYZZ=            -45.5715
 XXYZ=              0.0005 YYXZ=             -0.0005 ZZXY=             -0.0009
 N-N= 2.642908168614D+02 E-N=-3.284447335553D+03  KE= 1.045121098918D+03
  Exact polarizability:   0.000   0.000   0.000   0.000   0.000   0.000
 Approx polarizability:  39.677  -0.001  40.648   0.005   0.006  57.952
                          Isotropic Fermi Contact Couplings
        Atom                 a.u.       MegaHertz       Gauss      10(-4) cm-1
     1  S(33)             -0.07295     -25.05489      -8.94021      -8.35741
     2  O(17)             -0.00149       0.90391       0.32254       0.30151
     3  O(17)             -0.00149       0.90533       0.32305       0.30199
     4  O(17)              0.08477     -51.38692     -18.33613     -17.14083
     5  O(17)              0.08477     -51.38709     -18.33619     -17.14089
 --------------------------------------------------------
       Center         ----  Spin Dipole Couplings  ----
                      3XX-RR        3YY-RR        3ZZ-RR
 --------------------------------------------------------
     1   Atom       -0.031870      0.049114     -0.017244
     2   Atom       -0.061353     -0.060601      0.121954
     3   Atom       -0.061334     -0.060578      0.121911
     4   Atom       -0.089361     -1.093814      1.183176
     5   Atom       -0.086801     -1.098299      1.185100
 --------------------------------------------------------
                        XY            XZ            YZ
 --------------------------------------------------------
     1   Atom       -0.000016      0.000167     -0.000013
     2   Atom        0.002079      0.000001     -0.000074
     3   Atom       -0.002081      0.000022      0.000160
     4   Atom       -0.000265     -1.566449      0.000372
     5   Atom        0.000616      1.573899      0.000917
 --------------------------------------------------------


 ---------------------------------------------------------------------------------
              Anisotropic Spin Dipole Couplings in Principal Axis System
 ---------------------------------------------------------------------------------

       Atom             a.u.   MegaHertz   Gauss  10(-4) cm-1        Axes

              Baa    -0.0319    -1.307    -0.466    -0.436  0.9999  0.0002 -0.0114
     1 S(33)  Bbb    -0.0172    -0.707    -0.252    -0.236  0.0114  0.0002  0.9999
              Bcc     0.0491     2.014     0.719     0.672 -0.0002  1.0000 -0.0002
 
              Baa    -0.0631     4.565     1.629     1.523  0.7675 -0.6411 -0.0003
     2 O(17)  Bbb    -0.0589     4.259     1.520     1.421  0.6411  0.7675  0.0003
              Bcc     0.1220    -8.824    -3.149    -2.944  0.0000 -0.0004  1.0000
 
              Baa    -0.0631     4.564     1.628     1.522  0.7677  0.6408 -0.0006
     3 O(17)  Bbb    -0.0588     4.258     1.519     1.420 -0.6408  0.7677 -0.0006
              Bcc     0.1219    -8.821    -3.148    -2.943  0.0001  0.0009  1.0000
 
              Baa    -1.1438    82.767    29.533    27.608  0.8296  0.0002  0.5584
     4 O(17)  Bbb    -1.0938    79.148    28.242    26.401 -0.0001  1.0000 -0.0002
              Bcc     2.2376  -161.915   -57.775   -54.009 -0.5584  0.0001  0.8296
 
              Baa    -1.1484    83.096    29.651    27.718  0.8290  0.0000 -0.5592
     5 O(17)  Bbb    -1.0983    79.472    28.358    26.509 -0.0002  1.0000 -0.0002
              Bcc     2.2467  -162.568   -58.008   -54.227  0.5592  0.0003  0.8290
 

 ---------------------------------------------------------------------------------

 D2PCM: PCM CHGder 2nd derivatives, FixD1E=F FixD2E=F DoIter=F DoCFld=F I1PDM=0
 Calling FoFJK, ICntrl=    100147 FMM=F ISym2X=0 I1Cent= 0 IOpClX= 1 NMat=1 NMatS=1 NMatT=0.
 ***** Axes restored to original set *****
 -------------------------------------------------------------------
 Center     Atomic                   Forces (Hartrees/Bohr)
 Number     Number              X              Y              Z
 -------------------------------------------------------------------
      1       16          -0.004160907    0.000035615    0.000054573
      2        8          -0.004158993   -0.008064276   -0.000023035
      3        8          -0.004157665    0.008040013   -0.000017360
      4        8           0.006248404    0.000000043    0.005747894
      5        8           0.006229161   -0.000011395   -0.005762071
 -------------------------------------------------------------------
 Cartesian Forces:  Max     0.008064276 RMS     0.004659477

 GradGradGradGradGradGradGradGradGradGradGradGradGradGradGradGradGradGrad
 Berny optimization.
 Internal  Forces:  Max     0.009031601 RMS     0.004698434
 Search for a local minimum.
 Step number   1 out of a maximum of   24
 All quantities printed in internal units (Hartrees-Bohrs-Radians)
 Mixed Optimization -- RFO/linear search
 Second derivative matrix not updated -- analytic derivatives used.
 The second derivative matrix:
                          R1        R2        R3        R4        A1
           R1           0.55025
           R2           0.02889   0.55033
           R3           0.02158   0.02159   0.30078
           R4           0.02159   0.02157   0.12449   0.29942
           A1           0.00936   0.00936  -0.00060  -0.01190   0.05337
           A2           0.01047  -0.00955   0.01771  -0.03396  -0.02136
           A3           0.02329  -0.02596  -0.03304   0.02292  -0.02994
           A4          -0.00954   0.01048   0.01770  -0.03396  -0.02136
           A5          -0.02597   0.02328  -0.03304   0.02290  -0.02992
           A6          -0.01186  -0.01187   0.03721   0.04400   0.04214
           D1           0.01380   0.01380   0.03004  -0.07573   0.03679
           D2          -0.01064  -0.01063   0.05827  -0.02334  -0.02191
           D3           0.01147  -0.02211   0.02914  -0.01167  -0.01095
           D4           0.02211  -0.01147  -0.02914   0.01167   0.01095
                          A2        A3        A4        A5        A6
           A2           0.05527
           A3          -0.00156   0.15342
           A4          -0.00022   0.01746   0.05529
           A5           0.01745  -0.09337  -0.00156   0.15341
           A6          -0.05235  -0.04544  -0.05238  -0.04544   0.16921
           D1           0.01838  -0.02767   0.01839  -0.02766  -0.03285
           D2           0.01577  -0.01073   0.01577  -0.01072   0.02062
           D3           0.03629   0.01292  -0.02052  -0.02364   0.01031
           D4           0.02052   0.02365  -0.03629  -0.01293  -0.01030
                          D1        D2        D3        D4
           D1           0.08310
           D2          -0.00289   0.04899
           D3          -0.00144   0.02449   0.04786
           D4           0.00144  -0.02450   0.02337   0.04786
     Eigenvalues ---    0.01403   0.11310   0.11631   0.23522   0.24431
     Eigenvalues ---    0.27879   0.44126   0.53427   0.591251000.00000
     Eigenvalues --- 1000.000001000.000001000.000001000.00000
 RFO step:  Lambda=-6.25522426D-04 EMin= 1.40298067D-02
 Linear search not attempted -- first point.
 Iteration  1 RMS(Cart)=  0.00973696 RMS(Int)=  0.00004429
 Iteration  2 RMS(Cart)=  0.00005159 RMS(Int)=  0.00001152
 Iteration  3 RMS(Cart)=  0.00000000 RMS(Int)=  0.00001152
 Variable       Old X    -DE/DX   Delta X   Delta X   Delta X     New X
                                 (Linear)    (Quad)   (Total)
    R1        2.77032  -0.00903   0.00000  -0.01316  -0.01316   2.75715
    R2        2.77026  -0.00901   0.00000  -0.01310  -0.01310   2.75716
    R3        2.89672  -0.00847   0.00000  -0.01984  -0.01984   2.87687
    R4        2.89769  -0.00847   0.00000  -0.02199  -0.02199   2.87570
    A1        1.99646  -0.00065   0.00000  -0.00747  -0.00747   1.98899
    A2        1.95573  -0.00003   0.00000  -0.00053  -0.00055   1.95518
    A3        1.95504   0.00013   0.00000   0.00072   0.00071   1.95576
    A4        1.95573  -0.00003   0.00000  -0.00053  -0.00055   1.95518
    A5        1.95519   0.00010   0.00000   0.00058   0.00057   1.95576
    A6        1.61157   0.00078   0.00000   0.01083   0.01081   1.62238
    D1        2.27162  -0.00096   0.00000  -0.01128  -0.01128   2.26034
    D2       -2.27055   0.00071   0.00000   0.00921   0.00922  -2.26133
    D3        2.00630   0.00036   0.00000   0.00462   0.00463   2.01093
    D4       -2.00634  -0.00035   0.00000  -0.00459  -0.00459  -2.01093
         Item               Value     Threshold  Converged?
 Maximum Force            0.009032     0.000450     NO 
 RMS     Force            0.004698     0.000300     NO 
 Maximum Displacement     0.016634     0.001800     NO 
 RMS     Displacement     0.009737     0.001200     NO 
 Predicted change in Energy=-3.132785D-04
 GradGradGradGradGradGradGradGradGradGradGradGradGradGradGradGradGradGrad

                          Input orientation:                          
 ---------------------------------------------------------------------
 Center     Atomic      Atomic             Coordinates (Angstroms)
 Number     Number       Type             X           Y           Z
 ---------------------------------------------------------------------
      1         16           0        0.083401    0.000018    0.000371
      2          8           0        0.878266    1.223513   -0.000399
      3          8           0        0.878654   -1.223225    0.000199
      4          8           0       -0.964865   -0.000417   -1.103608
      5          8           0       -0.964628    0.000120    1.103716
 ---------------------------------------------------------------------
                    Distance matrix (angstroms):
                    1          2          3          4          5
     1  S    0.000000
     2  O    1.459023   0.000000
     3  O    1.459025   2.446738   0.000000
     4  O    1.522376   2.472288   2.472289   0.000000
     5  O    1.521755   2.472250   2.472249   2.207324   0.000000
 Stoichiometry    O4S(1-,2)
 Framework group  C1[X(O4S)]
 Deg. of freedom     9
 Full point group                 C1      NOp   1
 Largest Abelian subgroup         C1      NOp   1
 Largest concise Abelian subgroup C1      NOp   1
                         Standard orientation:                         
 ---------------------------------------------------------------------
 Center     Atomic      Atomic             Coordinates (Angstroms)
 Number     Number       Type             X           Y           Z
 ---------------------------------------------------------------------
      1         16           0        0.084363    0.000000   -0.000259
      2          8           0        0.879424   -1.223368    0.000241
      3          8           0        0.879420    1.223371    0.000252
      4          8           0       -0.963951   -0.000007    1.103674
      5          8           0       -0.963618    0.000005   -1.103650
 ---------------------------------------------------------------------
 Rotational constants (GHZ):      5.8194652      5.3965495      4.9276570
 Standard basis: 6-311++G(d,p) (5D, 7F)
 There are   118 symmetry adapted basis functions of A   symmetry.
 Integral buffers will be    131072 words long.
 Raffenetti 2 integral format.
 Two-electron integral symmetry is turned on.
   118 basis functions,   194 primitive gaussians,   123 cartesian basis functions
    25 alpha electrons       24 beta electrons
       nuclear repulsion energy       265.8334973566 Hartrees.
 NAtoms=    5 NActive=    5 NUniq=    5 SFac= 7.50D-01 NAtFMM=   80 NAOKFM=F Big=F
 ------------------------------------------------------------------------------
 Polarizable Continuum Model (PCM)
 =================================
 Model                : PCM.
 Atomic radii         : SMD-Coulomb.
 Polarization charges : Total charges.
 Charge compensation  : None.
 Solution method      : Matrix inversion.
 Cavity type          : VdW (van der Waals Surface) (Alpha=1.000).
 Cavity algorithm     : GePol (No added spheres)
                        Default sphere list used, NSphG=    5.
                        Lebedev-Laikov grids with approx.  5.0 points / Ang**2.
                        Smoothing algorithm: Karplus/York (Gamma=1.0000).
                        Polarization charges: spherical gaussians, with
                                              point-specific exponents (IZeta= 3).
                        Self-potential: point-specific (ISelfS= 7).
                        Self-field    : sphere-specific E.n sum rule (ISelfD= 2).
 1st derivatives      : Analytical E(r).r(x)/FMM algorithm (CHGder, D1EAlg=3).
                        Cavity 1st derivative terms included.
 Solvent              : Water, Eps=  78.355300 Eps(inf)=   1.777849
 ------------------------------------------------------------------------------
 Spheres list:
 ISph  on   Nord    Re0     Alpha      Xe            Ye            Ze
    1   S      1    2.490   1.000      0.084363      0.000000     -0.000259
    2   O      2    1.520   1.000      0.879424     -1.223368      0.000241
    3   O      3    1.520   1.000      0.879420      1.223371      0.000252
    4   O      4    1.520   1.000     -0.963951     -0.000007      1.103674
    5   O      5    1.520   1.000     -0.963618      0.000005     -1.103650
 ------------------------------------------------------------------------------
 ------------------------------------------------------------------------------
 Atomic radii for non-electrostatic terms: SMD-CDS.
 ------------------------------------------------------------------------------
 Nuclear repulsion after PCM non-electrostatic terms =      265.8334190799 Hartrees.
 One-electron integrals computed using PRISM.
 NBasis=   118 RedAO= T  NBF=   118
 NBsUse=   118 1.00D-06 NBFU=   118
 Initial guess read from the read-write file.
 B after Tr=     0.000000    0.000000    0.000000
         Rot=    1.000000    0.000000    0.000000    0.000000 Ang=   0.00 deg.
 Initial guess orbital symmetries:
 Alpha Orbitals:
       Occupied  (A) (A) (A) (A) (A) (A) (A) (A) (A) (A) (A) (A)
                 (A) (A) (A) (A) (A) (A) (A) (A) (A) (A) (A) (A)
                 (A)
       Virtual   (A) (A) (A) (A) (A) (A) (A) (A) (A) (A) (A) (A)
                 (A) (A) (A) (A) (A) (A) (A) (A) (A) (A) (A) (A)
                 (A) (A) (A) (A) (A) (A) (A) (A) (A) (A) (A) (A)
                 (A) (A) (A) (A) (A) (A) (A) (A) (A) (A) (A) (A)
                 (A) (A) (A) (A) (A) (A) (A) (A) (A) (A) (A) (A)
                 (A) (A) (A) (A) (A) (A) (A) (A) (A) (A) (A) (A)
                 (A) (A) (A) (A) (A) (A) (A) (A) (A) (A) (A) (A)
                 (A) (A) (A) (A) (A) (A) (A) (A) (A)
 Beta  Orbitals:
       Occupied  (A) (A) (A) (A) (A) (A) (A) (A) (A) (A) (A) (A)
                 (A) (A) (A) (A) (A) (A) (A) (A) (A) (A) (A) (A)
       Virtual   (A) (A) (A) (A) (A) (A) (A) (A) (A) (A) (A) (A)
                 (A) (A) (A) (A) (A) (A) (A) (A) (A) (A) (A) (A)
                 (A) (A) (A) (A) (A) (A) (A) (A) (A) (A) (A) (A)
                 (A) (A) (A) (A) (A) (A) (A) (A) (A) (A) (A) (A)
                 (A) (A) (A) (A) (A) (A) (A) (A) (A) (A) (A) (A)
                 (A) (A) (A) (A) (A) (A) (A) (A) (A) (A) (A) (A)
                 (A) (A) (A) (A) (A) (A) (A) (A) (A) (A) (A) (A)
                 (A) (A) (A) (A) (A) (A) (A) (A) (A) (A)
 Initial guess <Sx>= 0.0000 <Sy>= 0.0000 <Sz>= 0.5000 <S**2>= 0.7855 S= 0.5176
 Requested convergence on RMS density matrix=1.00D-08 within 128 cycles.
 Requested convergence on MAX density matrix=1.00D-06.
 Requested convergence on             energy=1.00D-06.
 No special actions if energy rises.
 Keep R1 and R2 ints in memory in canonical form, NReq=61631836.
 Rare condition: small coef for last iteration:  0.000D+00
 Error on total polarization charges =  0.03510
 SCF Done:  E(UM062X) =  -699.067903173     A.U. after   29 cycles
             Convg  =    0.9203D-08             -V/T =  2.0016
 <Sx>= 0.0000 <Sy>= 0.0000 <Sz>= 0.5000 <S**2>= 0.7652 S= 0.5076
 <L.S>= 0.000000000000E+00
 SMD-CDS (non-electrostatic) energy             (kcal/mol) =      -0.05
 (included in total energy above)
 Annihilation of the first spin contaminant:
 S**2 before annihilation     0.7652,   after     0.7502
 D1PCM: PCM CHGder 1st derivatives, ID1Alg=3 FixD1E=F DoIter=F DoCFld=F I1PDM=0.
 Calling FoFJK, ICntrl=      2127 FMM=F ISym2X=0 I1Cent= 0 IOpClX= 1 NMat=1 NMatS=1 NMatT=0.
 ***** Axes restored to original set *****
 -------------------------------------------------------------------
 Center     Atomic                   Forces (Hartrees/Bohr)
 Number     Number              X              Y              Z
 -------------------------------------------------------------------
      1       16          -0.146781369   -0.000023459   -0.000588176
      2        8           0.023448869    0.008208112    0.000091813
      3        8           0.023451121   -0.008200465    0.000095642
      4        8           0.050035559   -0.000001188   -0.036900848
      5        8           0.049845821    0.000016999    0.037301569
 -------------------------------------------------------------------
 Cartesian Forces:  Max     0.146781369 RMS     0.045107873

 GradGradGradGradGradGradGradGradGradGradGradGradGradGradGradGradGradGrad
 Berny optimization.
 Using GEDIIS/GDIIS optimizer.
 Internal  Forces:  Max     0.119451807 RMS     0.039536269
 Search for a local minimum.
 Step number   2 out of a maximum of   24
 All quantities printed in internal units (Hartrees-Bohrs-Radians)
 Mixed Optimization -- RFO/linear search
 Update second derivatives using D2CorX and points    2    1
 DE=  4.54D-02 DEPred=-3.13D-04 R=-1.45D+02
 Trust test=-1.45D+02 RLast= 4.06D-02 DXMaxT set to 1.50D-01
 The second derivative matrix:
                          R1        R2        R3        R4        A1
           R1          -0.16793
           R2          -0.68853  -0.16634
           R3          -0.11666  -0.11635   0.18570
           R4          -0.12493  -0.12463   0.00924   0.18389
           A1          -0.12058  -0.12046  -0.01266  -0.02567   0.02797
           A2           0.62447   0.60398   0.03396  -0.00899   0.10465
           A3           0.52276   0.47313  -0.01775   0.04527   0.07226
           A4           0.60450   0.62406   0.03397  -0.00897   0.10466
           A5           0.47233   0.52119  -0.01822   0.04477   0.07210
           A6          -2.43198  -2.43017  -0.01839  -0.04610  -0.45578
           D1           0.88791   0.88727   0.04121  -0.05194   0.21794
           D2          -0.68971  -0.68921   0.04903  -0.04236  -0.16255
           D3          -0.32796  -0.36129   0.02456  -0.02114  -0.08126
           D4           0.36175   0.32792  -0.02447   0.02123   0.08129
                          A2        A3        A4        A5        A6
           A2          -0.58711
           A3          -0.52173  -0.26784
           A4          -0.64263  -0.50274  -0.58715
           A5          -0.50201  -0.51404  -0.52104  -0.26668
           A6           2.48940   2.01261   2.48949   2.00980  -9.88856
           D1          -0.90993  -0.77915  -0.90996  -0.77815   3.64117
           D2           0.73631   0.57257   0.73634   0.57181  -2.83105
           D3           0.39650   0.30452   0.33970   0.26757  -1.41528
           D4          -0.33981  -0.26805  -0.39664  -0.30424   1.41577
                          D1        D2        D3        D4
           D1          -1.25972
           D2           1.03933  -0.75991
           D3           0.51958  -0.37989  -0.15430
           D4          -0.51975   0.38002   0.22559  -0.15443
 Use linear search instead of GDIIS.
 Skip linear search -- no minimum in search direction.
 Steepest descent instead of Quadratic search.
 Steepest descent step scaled to max of 0.05000.
 Iteration  1 RMS(Cart)=  0.02389873 RMS(Int)=  0.00037037
 Iteration  2 RMS(Cart)=  0.00029191 RMS(Int)=  0.00008739
 Iteration  3 RMS(Cart)=  0.00000001 RMS(Int)=  0.00008739
 Variable       Old X    -DE/DX   Delta X   Delta X   Delta X     New X
                                 (Linear)    (Quad)   (Total)
    R1        2.75715   0.01966   0.00000   0.00823   0.00823   2.76538
    R2        2.75716   0.01966   0.00000   0.00823   0.00823   2.76539
    R3        2.87687  -0.00769   0.00000  -0.00322  -0.00322   2.87365
    R4        2.87570  -0.00728   0.00000  -0.00305  -0.00305   2.87265
    A1        1.98899   0.00523   0.00000   0.00219   0.00194   1.99093
    A2        1.95518  -0.03003   0.00000  -0.01257  -0.01262   1.94255
    A3        1.95576  -0.02416   0.00000  -0.01011  -0.01010   1.94566
    A4        1.95518  -0.03003   0.00000  -0.01257  -0.01262   1.94255
    A5        1.95576  -0.02416   0.00000  -0.01011  -0.01010   1.94565
    A6        1.62238   0.11945   0.00000   0.05000   0.05007   1.67245
    D1        2.26034  -0.04430   0.00000  -0.01854  -0.01837   2.24196
    D2       -2.26133   0.03435   0.00000   0.01438   0.01432  -2.24701
    D3        2.01093   0.01717   0.00000   0.00719   0.00716   2.01809
    D4       -2.01093  -0.01717   0.00000  -0.00719  -0.00716  -2.01808
         Item               Value     Threshold  Converged?
 Maximum Force            0.119452     0.000450     NO 
 RMS     Force            0.039536     0.000300     NO 
 Maximum Displacement     0.047149     0.001800     NO 
 RMS     Displacement     0.023796     0.001200     NO 
 Predicted change in Energy=-6.519766D-03
 GradGradGradGradGradGradGradGradGradGradGradGradGradGradGradGradGradGrad

                          Input orientation:                          
 ---------------------------------------------------------------------
 Center     Atomic      Atomic             Coordinates (Angstroms)
 Number     Number       Type             X           Y           Z
 ---------------------------------------------------------------------
      1         16           0        0.071303    0.000017    0.001344
      2          8           0        0.867345    1.227936   -0.001177
      3          8           0        0.867734   -1.227652   -0.000576
      4          8           0       -0.947065   -0.000421   -1.127979
      5          8           0       -0.948488    0.000128    1.128667
 ---------------------------------------------------------------------
                    Distance matrix (angstroms):
                    1          2          3          4          5
     1  S    0.000000
     2  O    1.463378   0.000000
     3  O    1.463379   2.455588   0.000000
     4  O    1.520672   2.463864   2.463865   0.000000
     5  O    1.520141   2.466031   2.466029   2.256646   0.000000
 Stoichiometry    O4S(1-,2)
 Framework group  C1[X(O4S)]
 Deg. of freedom     9
 Full point group                 C1      NOp   1
 Largest Abelian subgroup         C1      NOp   1
 Largest concise Abelian subgroup C1      NOp   1
                         Standard orientation:                         
 ---------------------------------------------------------------------
 Center     Atomic      Atomic             Coordinates (Angstroms)
 Number     Number       Type             X           Y           Z
 ---------------------------------------------------------------------
      1         16           0        0.074275    0.000000   -0.001421
      2          8           0        0.870517   -1.227792   -0.002932
      3          8           0        0.870511    1.227796   -0.002918
      4          8           0       -0.938799   -0.000009    1.132653
      5          8           0       -0.950778    0.000005   -1.123961
 ---------------------------------------------------------------------
 Rotational constants (GHZ):      5.6815805      5.3935495      4.9939560
 Standard basis: 6-311++G(d,p) (5D, 7F)
 There are   118 symmetry adapted basis functions of A   symmetry.
 Integral buffers will be    131072 words long.
 Raffenetti 2 integral format.
 Two-electron integral symmetry is turned on.
   118 basis functions,   194 primitive gaussians,   123 cartesian basis functions
    25 alpha electrons       24 beta electrons
       nuclear repulsion energy       265.4318693265 Hartrees.
 NAtoms=    5 NActive=    5 NUniq=    5 SFac= 7.50D-01 NAtFMM=   80 NAOKFM=F Big=F
 ------------------------------------------------------------------------------
 Polarizable Continuum Model (PCM)
 =================================
 Model                : PCM.
 Atomic radii         : SMD-Coulomb.
 Polarization charges : Total charges.
 Charge compensation  : None.
 Solution method      : Matrix inversion.
 Cavity type          : VdW (van der Waals Surface) (Alpha=1.000).
 Cavity algorithm     : GePol (No added spheres)
                        Default sphere list used, NSphG=    5.
                        Lebedev-Laikov grids with approx.  5.0 points / Ang**2.
                        Smoothing algorithm: Karplus/York (Gamma=1.0000).
                        Polarization charges: spherical gaussians, with
                                              point-specific exponents (IZeta= 3).
                        Self-potential: point-specific (ISelfS= 7).
                        Self-field    : sphere-specific E.n sum rule (ISelfD= 2).
 1st derivatives      : Analytical E(r).r(x)/FMM algorithm (CHGder, D1EAlg=3).
                        Cavity 1st derivative terms included.
 Solvent              : Water, Eps=  78.355300 Eps(inf)=   1.777849
 ------------------------------------------------------------------------------
 Spheres list:
 ISph  on   Nord    Re0     Alpha      Xe            Ye            Ze
    1   S      1    2.490   1.000      0.074275      0.000000     -0.001421
    2   O      2    1.520   1.000      0.870517     -1.227792     -0.002932
    3   O      3    1.520   1.000      0.870511      1.227796     -0.002918
    4   O      4    1.520   1.000     -0.938799     -0.000009      1.132653
    5   O      5    1.520   1.000     -0.950778      0.000005     -1.123961
 ------------------------------------------------------------------------------
 ------------------------------------------------------------------------------
 Atomic radii for non-electrostatic terms: SMD-CDS.
 ------------------------------------------------------------------------------
 Nuclear repulsion after PCM non-electrostatic terms =      265.4317926038 Hartrees.
 One-electron integrals computed using PRISM.
 NBasis=   118 RedAO= T  NBF=   118
 NBsUse=   118 1.00D-06 NBFU=   118
 Initial guess read from the read-write file.
 B after Tr=     0.000000    0.000000    0.000000
         Rot=    1.000000    0.000000    0.000000    0.000000 Ang=   0.00 deg.
 Initial guess orbital symmetries:
 Alpha Orbitals:
       Occupied  (A) (A) (A) (A) (A) (A) (A) (A) (A) (A) (A) (A)
                 (A) (A) (A) (A) (A) (A) (A) (A) (A) (A) (A) (A)
                 (A)
       Virtual   (A) (A) (A) (A) (A) (A) (A) (A) (A) (A) (A) (A)
                 (A) (A) (A) (A) (A) (A) (A) (A) (A) (A) (A) (A)
                 (A) (A) (A) (A) (A) (A) (A) (A) (A) (A) (A) (A)
                 (A) (A) (A) (A) (A) (A) (A) (A) (A) (A) (A) (A)
                 (A) (A) (A) (A) (A) (A) (A) (A) (A) (A) (A) (A)
                 (A) (A) (A) (A) (A) (A) (A) (A) (A) (A) (A) (A)
                 (A) (A) (A) (A) (A) (A) (A) (A) (A) (A) (A) (A)
                 (A) (A) (A) (A) (A) (A) (A) (A) (A)
 Beta  Orbitals:
       Occupied  (A) (A) (A) (A) (A) (A) (A) (A) (A) (A) (A) (A)
                 (A) (A) (A) (A) (A) (A) (A) (A) (A) (A) (A) (A)
       Virtual   (A) (A) (A) (A) (A) (A) (A) (A) (A) (A) (A) (A)
                 (A) (A) (A) (A) (A) (A) (A) (A) (A) (A) (A) (A)
                 (A) (A) (A) (A) (A) (A) (A) (A) (A) (A) (A) (A)
                 (A) (A) (A) (A) (A) (A) (A) (A) (A) (A) (A) (A)
                 (A) (A) (A) (A) (A) (A) (A) (A) (A) (A) (A) (A)
                 (A) (A) (A) (A) (A) (A) (A) (A) (A) (A) (A) (A)
                 (A) (A) (A) (A) (A) (A) (A) (A) (A) (A) (A) (A)
                 (A) (A) (A) (A) (A) (A) (A) (A) (A) (A)
 Initial guess <Sx>= 0.0000 <Sy>= 0.0000 <Sz>= 0.5000 <S**2>= 0.7653 S= 0.5076
 Harris functional with IExCor= 1009 diagonalized for initial guess.
 ExpMin= 4.05D-02 ExpMax= 9.34D+04 ExpMxC= 3.17D+03 IAcc=2 IRadAn=         0 AccDes= 0.00D+00
 HarFok:  IExCor= 1009 AccDes= 0.00D+00 IRadAn=         0 IDoV= 1
 ScaDFX=  1.000000  1.000000  1.000000  1.000000
 FoFCou: FMM=F IPFlag=           0 FMFlag=      100000 FMFlg1=           0
         NFxFlg=           0 DoJE=T BraDBF=F KetDBF=T FulRan=T
         Omega=  0.000000  0.000000  1.000000  0.000000  0.000000 ICntrl=     500 IOpCl=  0
         NMat0=    1 NMatS0=    1 NMatT0=    0 NMatD0=    1 NMtDS0=    0 NMtDT0=    0
         I1Cent=           4 NGrid=           0.
 Petite list used in FoFCou.
 Requested convergence on RMS density matrix=1.00D-08 within 128 cycles.
 Requested convergence on MAX density matrix=1.00D-06.
 Requested convergence on             energy=1.00D-06.
 No special actions if energy rises.
 Keep R1 and R2 ints in memory in canonical form, NReq=61629114.
 Error on total polarization charges =  0.03488
 SCF Done:  E(UM062X) =  -699.076166908     A.U. after   18 cycles
             Convg  =    0.7723D-08             -V/T =  2.0017
 <Sx>= 0.0000 <Sy>= 0.0000 <Sz>= 0.5000 <S**2>= 0.7654 S= 0.5077
 <L.S>= 0.000000000000E+00
 SMD-CDS (non-electrostatic) energy             (kcal/mol) =      -0.05
 (included in total energy above)
 Annihilation of the first spin contaminant:
 S**2 before annihilation     0.7654,   after     0.7502
 D1PCM: PCM CHGder 1st derivatives, ID1Alg=3 FixD1E=F DoIter=F DoCFld=F I1PDM=0.
 Calling FoFJK, ICntrl=      2127 FMM=F ISym2X=0 I1Cent= 0 IOpClX= 1 NMat=1 NMatS=1 NMatT=0.
 ***** Axes restored to original set *****
 -------------------------------------------------------------------
 Center     Atomic                   Forces (Hartrees/Bohr)
 Number     Number              X              Y              Z
 -------------------------------------------------------------------
      1       16          -0.137020618   -0.000022365   -0.001774739
      2        8           0.022708589    0.005206474    0.000541228
      3        8           0.022709910   -0.005198747    0.000543596
      4        8           0.045698179    0.000001613   -0.022706712
      5        8           0.045903939    0.000013025    0.023396627
 -------------------------------------------------------------------
 Cartesian Forces:  Max     0.137020618 RMS     0.040924675

 GradGradGradGradGradGradGradGradGradGradGradGradGradGradGradGradGradGrad
 Berny optimization.
 Using GEDIIS/GDIIS optimizer.
 Internal  Forces:  Max     0.095199561 RMS     0.032110049
 Search for a local minimum.
 Step number   3 out of a maximum of   24
 All quantities printed in internal units (Hartrees-Bohrs-Radians)
 Mixed Optimization -- RFO/linear search
 Update second derivatives using D2CorX and points    2    3    1
 The second derivative matrix:
                          R1        R2        R3        R4        A1
           R1           0.33331
           R2          -0.18767   0.33413
           R3          -0.08918  -0.08889   0.18279
           R4          -0.09193  -0.09166   0.00665   0.18166
           A1          -0.00935  -0.00932  -0.00979  -0.02157   0.05029
           A2           0.08925   0.06918   0.00759  -0.04124  -0.01194
           A3           0.08916   0.03986  -0.03904   0.01921  -0.02214
           A4           0.06926   0.08923   0.00761  -0.04123  -0.01194
           A5           0.03932   0.08852  -0.03948   0.01875  -0.02217
           A6          -0.31830  -0.31811   0.08813   0.08370   0.00643
           D1           0.11651   0.11647   0.00133  -0.10032   0.04852
           D2          -0.09343  -0.09339   0.08078  -0.00405  -0.03092
           D3          -0.02987  -0.06343   0.04043  -0.00198  -0.01546
           D4           0.06356   0.02996  -0.04035   0.00206   0.01546
                          A2        A3        A4        A5        A6
           A2          -0.01763
           A3          -0.06042   0.10584
           A4          -0.07312  -0.04142  -0.01763
           A5          -0.04133  -0.14086  -0.06034   0.10599
           A6           0.23876   0.18943   0.23877   0.18912  -0.99517
           D1          -0.08787  -0.11321  -0.08788  -0.11312   0.39337
           D2           0.10025   0.05728   0.10025   0.05722  -0.31858
           D3           0.07852   0.04692   0.02171   0.01032  -0.15926
           D4          -0.02172  -0.01036  -0.07854  -0.04690   0.15932
                          D1        D2        D3        D4
           D1          -0.07388
           D2           0.12218  -0.05077
           D3           0.06108  -0.02538   0.02292
           D4          -0.06110   0.02539   0.04831   0.02292
 Use linear search instead of GDIIS.
 Skip linear search -- no minimum in search direction.
 Steepest descent instead of Quadratic search.
 Steepest descent step scaled to max of 0.05000.
 Iteration  1 RMS(Cart)=  0.02304721 RMS(Int)=  0.00036787
 Iteration  2 RMS(Cart)=  0.00031332 RMS(Int)=  0.00008301
 Iteration  3 RMS(Cart)=  0.00000002 RMS(Int)=  0.00008301
 Variable       Old X    -DE/DX   Delta X   Delta X   Delta X     New X
                                 (Linear)    (Quad)   (Total)
    R1        2.76538   0.01672   0.00000   0.00878   0.00878   2.77417
    R2        2.76539   0.01672   0.00000   0.00878   0.00878   2.77417
    R3        2.87365  -0.01374   0.00000  -0.00722  -0.00722   2.86644
    R4        2.87265  -0.01345   0.00000  -0.00706  -0.00706   2.86559
    A1        1.99093   0.00017   0.00000   0.00009  -0.00015   1.99079
    A2        1.94255  -0.02302   0.00000  -0.01209  -0.01216   1.93039
    A3        1.94566  -0.01838   0.00000  -0.00965  -0.00966   1.93600
    A4        1.94255  -0.02302   0.00000  -0.01209  -0.01216   1.93039
    A5        1.94565  -0.01838   0.00000  -0.00965  -0.00966   1.93599
    A6        1.67245   0.09520   0.00000   0.05000   0.05004   1.72250
    D1        2.24196  -0.03694   0.00000  -0.01940  -0.01925   2.22272
    D2       -2.24701   0.02992   0.00000   0.01571   0.01567  -2.23135
    D3        2.01809   0.01496   0.00000   0.00786   0.00783   2.02592
    D4       -2.01808  -0.01496   0.00000  -0.00786  -0.00783  -2.02592
         Item               Value     Threshold  Converged?
 Maximum Force            0.095200     0.000450     NO 
 RMS     Force            0.032110     0.000300     NO 
 Maximum Displacement     0.042665     0.001800     NO 
 RMS     Displacement     0.022912     0.001200     NO 
 Predicted change in Energy=-2.630778D-02
 GradGradGradGradGradGradGradGradGradGradGradGradGradGradGradGradGradGrad

                          Input orientation:                          
 ---------------------------------------------------------------------
 Center     Atomic      Atomic             Coordinates (Angstroms)
 Number     Number       Type             X           Y           Z
 ---------------------------------------------------------------------
      1         16           0        0.057853    0.000015    0.002262
      2          8           0        0.856509    1.231773   -0.001937
      3          8           0        0.856899   -1.231494   -0.001335
      4          8           0       -0.928678   -0.000423   -1.149954
      5          8           0       -0.931754    0.000137    1.151244
 ---------------------------------------------------------------------
                    Distance matrix (angstroms):
                    1          2          3          4          5
     1  S    0.000000
     2  O    1.468025   0.000000
     3  O    1.468026   2.463267   0.000000
     4  O    1.516854   2.454209   2.454210   0.000000
     5  O    1.516405   2.458585   2.458583   2.301201   0.000000
 Stoichiometry    O4S(1-,2)
 Framework group  C1[X(O4S)]
 Deg. of freedom     9
 Full point group                 C1      NOp   1
 Largest Abelian subgroup         C1      NOp   1
 Largest concise Abelian subgroup C1      NOp   1
                         Standard orientation:                         
 ---------------------------------------------------------------------
 Center     Atomic      Atomic             Coordinates (Angstroms)
 Number     Number       Type             X           Y           Z
 ---------------------------------------------------------------------
      1         16           0        0.063043    0.000000   -0.002660
      2          8           0        0.861883   -1.231629   -0.009187
      3          8           0        0.861871    1.231638   -0.009171
      4          8           0       -0.908380   -0.000012    1.162321
      5          8           0       -0.941461    0.000004   -1.138642
 ---------------------------------------------------------------------
 Rotational constants (GHZ):      5.5612284      5.3984903      5.0643474
 Standard basis: 6-311++G(d,p) (5D, 7F)
 There are   118 symmetry adapted basis functions of A   symmetry.
 Integral buffers will be    131072 words long.
 Raffenetti 2 integral format.
 Two-electron integral symmetry is turned on.
   118 basis functions,   194 primitive gaussians,   123 cartesian basis functions
    25 alpha electrons       24 beta electrons
       nuclear repulsion energy       265.2185273815 Hartrees.
 NAtoms=    5 NActive=    5 NUniq=    5 SFac= 7.50D-01 NAtFMM=   80 NAOKFM=F Big=F
 ------------------------------------------------------------------------------
 Polarizable Continuum Model (PCM)
 =================================
 Model                : PCM.
 Atomic radii         : SMD-Coulomb.
 Polarization charges : Total charges.
 Charge compensation  : None.
 Solution method      : Matrix inversion.
 Cavity type          : VdW (van der Waals Surface) (Alpha=1.000).
 Cavity algorithm     : GePol (No added spheres)
                        Default sphere list used, NSphG=    5.
                        Lebedev-Laikov grids with approx.  5.0 points / Ang**2.
                        Smoothing algorithm: Karplus/York (Gamma=1.0000).
                        Polarization charges: spherical gaussians, with
                                              point-specific exponents (IZeta= 3).
                        Self-potential: point-specific (ISelfS= 7).
                        Self-field    : sphere-specific E.n sum rule (ISelfD= 2).
 1st derivatives      : Analytical E(r).r(x)/FMM algorithm (CHGder, D1EAlg=3).
                        Cavity 1st derivative terms included.
 Solvent              : Water, Eps=  78.355300 Eps(inf)=   1.777849
 ------------------------------------------------------------------------------
 Spheres list:
 ISph  on   Nord    Re0     Alpha      Xe            Ye            Ze
    1   S      1    2.490   1.000      0.063043      0.000000     -0.002660
    2   O      2    1.520   1.000      0.861883     -1.231629     -0.009187
    3   O      3    1.520   1.000      0.861871      1.231638     -0.009171
    4   O      4    1.520   1.000     -0.908380     -0.000012      1.162321
    5   O      5    1.520   1.000     -0.941461      0.000004     -1.138642
 ------------------------------------------------------------------------------
 ------------------------------------------------------------------------------
 Atomic radii for non-electrostatic terms: SMD-CDS.
 ------------------------------------------------------------------------------
 Nuclear repulsion after PCM non-electrostatic terms =      265.2184542982 Hartrees.
 One-electron integrals computed using PRISM.
 NBasis=   118 RedAO= T  NBF=   118
 NBsUse=   118 1.00D-06 NBFU=   118
 Initial guess read from the read-write file.
 B after Tr=     0.000000    0.000000    0.000000
         Rot=    1.000000    0.000000    0.000000    0.000000 Ang=   0.00 deg.
 Initial guess orbital symmetries:
 Alpha Orbitals:
       Occupied  (A) (A) (A) (A) (A) (A) (A) (A) (A) (A) (A) (A)
                 (A) (A) (A) (A) (A) (A) (A) (A) (A) (A) (A) (A)
                 (A)
       Virtual   (A) (A) (A) (A) (A) (A) (A) (A) (A) (A) (A) (A)
                 (A) (A) (A) (A) (A) (A) (A) (A) (A) (A) (A) (A)
                 (A) (A) (A) (A) (A) (A) (A) (A) (A) (A) (A) (A)
                 (A) (A) (A) (A) (A) (A) (A) (A) (A) (A) (A) (A)
                 (A) (A) (A) (A) (A) (A) (A) (A) (A) (A) (A) (A)
                 (A) (A) (A) (A) (A) (A) (A) (A) (A) (A) (A) (A)
                 (A) (A) (A) (A) (A) (A) (A) (A) (A) (A) (A) (A)
                 (A) (A) (A) (A) (A) (A) (A) (A) (A)
 Beta  Orbitals:
       Occupied  (A) (A) (A) (A) (A) (A) (A) (A) (A) (A) (A) (A)
                 (A) (A) (A) (A) (A) (A) (A) (A) (A) (A) (A) (A)
       Virtual   (A) (A) (A) (A) (A) (A) (A) (A) (A) (A) (A) (A)
                 (A) (A) (A) (A) (A) (A) (A) (A) (A) (A) (A) (A)
                 (A) (A) (A) (A) (A) (A) (A) (A) (A) (A) (A) (A)
                 (A) (A) (A) (A) (A) (A) (A) (A) (A) (A) (A) (A)
                 (A) (A) (A) (A) (A) (A) (A) (A) (A) (A) (A) (A)
                 (A) (A) (A) (A) (A) (A) (A) (A) (A) (A) (A) (A)
                 (A) (A) (A) (A) (A) (A) (A) (A) (A) (A) (A) (A)
                 (A) (A) (A) (A) (A) (A) (A) (A) (A) (A)
 Initial guess <Sx>= 0.0000 <Sy>= 0.0000 <Sz>= 0.5000 <S**2>= 0.7655 S= 0.5077
 Harris functional with IExCor= 1009 diagonalized for initial guess.
 ExpMin= 4.05D-02 ExpMax= 9.34D+04 ExpMxC= 3.17D+03 IAcc=2 IRadAn=         0 AccDes= 0.00D+00
 HarFok:  IExCor= 1009 AccDes= 0.00D+00 IRadAn=         0 IDoV= 1
 ScaDFX=  1.000000  1.000000  1.000000  1.000000
 FoFCou: FMM=F IPFlag=           0 FMFlag=      100000 FMFlg1=           0
         NFxFlg=           0 DoJE=T BraDBF=F KetDBF=T FulRan=T
         Omega=  0.000000  0.000000  1.000000  0.000000  0.000000 ICntrl=     500 IOpCl=  0
         NMat0=    1 NMatS0=    1 NMatT0=    0 NMatD0=    1 NMtDS0=    0 NMtDT0=    0
         I1Cent=           4 NGrid=           0.
 Petite list used in FoFCou.
 Requested convergence on RMS density matrix=1.00D-08 within 128 cycles.
 Requested convergence on MAX density matrix=1.00D-06.
 Requested convergence on             energy=1.00D-06.
 No special actions if energy rises.
 Keep R1 and R2 ints in memory in canonical form, NReq=61625132.
 Error on total polarization charges =  0.03467
 SCF Done:  E(UM062X) =  -699.082989972     A.U. after   21 cycles
             Convg  =    0.4504D-08             -V/T =  2.0017
 <Sx>= 0.0000 <Sy>= 0.0000 <Sz>= 0.5000 <S**2>= 0.7656 S= 0.5078
 <L.S>= 0.000000000000E+00
 SMD-CDS (non-electrostatic) energy             (kcal/mol) =      -0.05
 (included in total energy above)
 Annihilation of the first spin contaminant:
 S**2 before annihilation     0.7656,   after     0.7502
 D1PCM: PCM CHGder 1st derivatives, ID1Alg=3 FixD1E=F DoIter=F DoCFld=F I1PDM=0.
 Calling FoFJK, ICntrl=      2127 FMM=F ISym2X=0 I1Cent= 0 IOpClX= 1 NMat=1 NMatS=1 NMatT=0.
 ***** Axes restored to original set *****
 -------------------------------------------------------------------
 Center     Atomic                   Forces (Hartrees/Bohr)
 Number     Number              X              Y              Z
 -------------------------------------------------------------------
      1       16          -0.125855484   -0.000020763   -0.002944440
      2        8           0.022327273    0.002509690    0.001033589
      3        8           0.022327827   -0.002501960    0.001034687
      4        8           0.040200833    0.000003385   -0.011984570
      5        8           0.040999550    0.000009647    0.012860733
 -------------------------------------------------------------------
 Cartesian Forces:  Max     0.125855484 RMS     0.036937883

 GradGradGradGradGradGradGradGradGradGradGradGradGradGradGradGradGradGrad
 Berny optimization.
 Using GEDIIS/GDIIS optimizer.
 Internal  Forces:  Max     0.073969914 RMS     0.025945275
 Search for a local minimum.
 Step number   4 out of a maximum of   24
 All quantities printed in internal units (Hartrees-Bohrs-Radians)
 Mixed Optimization -- RFO/linear search
 Update second derivatives using D2CorX and points    2    3    4    1
 The second derivative matrix:
                          R1        R2        R3        R4        A1
           R1           0.36466
           R2          -0.15635   0.36544
           R3          -0.08841  -0.08813   0.17877
           R4          -0.09023  -0.08997   0.00214   0.17674
           A1          -0.00068  -0.00066  -0.01387  -0.02579   0.04824
           A2           0.05289   0.03285   0.01030  -0.03914  -0.01795
           A3           0.06001   0.01073  -0.03687   0.02090  -0.02697
           A4           0.03290   0.05290   0.01032  -0.03913  -0.01795
           A5           0.01020   0.05942  -0.03730   0.02044  -0.02698
           A6          -0.17687  -0.17678   0.08139   0.07955   0.03355
           D1           0.06662   0.06661   0.00164  -0.10102   0.03697
           D2          -0.05546  -0.05544   0.08182  -0.00213  -0.02082
           D3          -0.01089  -0.04446   0.04095  -0.00103  -0.01041
           D4           0.04457   0.01098  -0.04087   0.00111   0.01041
                          A2        A3        A4        A5        A6
           A2           0.02103
           A3          -0.02940   0.13074
           A4          -0.03447  -0.01040   0.02103
           A5          -0.01036  -0.11601  -0.02936   0.13081
           A6           0.08482   0.06591   0.08482   0.06575  -0.38545
           D1          -0.03158  -0.06804  -0.03158  -0.06800   0.17207
           D2           0.05621   0.02195   0.05621   0.02193  -0.14660
           D3           0.05651   0.02926  -0.00031  -0.00732  -0.07328
           D4           0.00030   0.00731  -0.05652  -0.02925   0.07331
                          D1        D2        D3        D4
           D1           0.00563
           D2           0.06099  -0.00407
           D3           0.03049  -0.00204   0.03460
           D4          -0.03050   0.00204   0.03663   0.03460
 Use linear search instead of GDIIS.
 Skip linear search -- no minimum in search direction.
 Steepest descent instead of Quadratic search.
 Steepest descent step scaled to max of 0.05000.
 Iteration  1 RMS(Cart)=  0.02202442 RMS(Int)=  0.00036896
 Iteration  2 RMS(Cart)=  0.00034383 RMS(Int)=  0.00008022
 Iteration  3 RMS(Cart)=  0.00000003 RMS(Int)=  0.00008022
 Variable       Old X    -DE/DX   Delta X   Delta X   Delta X     New X
                                 (Linear)    (Quad)   (Total)
    R1        2.77417   0.01425   0.00000   0.00963   0.00963   2.78380
    R2        2.77417   0.01425   0.00000   0.00963   0.00963   2.78380
    R3        2.86644  -0.01704   0.00000  -0.01152  -0.01152   2.85492
    R4        2.86559  -0.01701   0.00000  -0.01150  -0.01150   2.85409
    A1        1.99079  -0.00425   0.00000  -0.00287  -0.00311   1.98768
    A2        1.93039  -0.01677   0.00000  -0.01134  -0.01142   1.91897
    A3        1.93600  -0.01342   0.00000  -0.00907  -0.00910   1.92690
    A4        1.93039  -0.01677   0.00000  -0.01134  -0.01142   1.91897
    A5        1.93599  -0.01342   0.00000  -0.00907  -0.00910   1.92689
    A6        1.72250   0.07397   0.00000   0.05000   0.05001   1.77250
    D1        2.22272  -0.03106   0.00000  -0.02100  -0.02086   2.20185
    D2       -2.23135   0.02660   0.00000   0.01798   0.01794  -2.21340
    D3        2.02592   0.01330   0.00000   0.00899   0.00897   2.03489
    D4       -2.02592  -0.01330   0.00000  -0.00899  -0.00897  -2.03489
         Item               Value     Threshold  Converged?
 Maximum Force            0.073970     0.000450     NO 
 RMS     Force            0.025945     0.000300     NO 
 Maximum Displacement     0.037612     0.001800     NO 
 RMS     Displacement     0.021852     0.001200     NO 
 Predicted change in Energy=-2.244843D-02
 GradGradGradGradGradGradGradGradGradGradGradGradGradGradGradGradGradGrad

                          Input orientation:                          
 ---------------------------------------------------------------------
 Center     Atomic      Atomic             Coordinates (Angstroms)
 Number     Number       Type             X           Y           Z
 ---------------------------------------------------------------------
      1         16           0        0.042809    0.000013    0.003079
      2          8           0        0.846147    1.234802   -0.002626
      3          8           0        0.846539   -1.234525   -0.002023
      4          8           0       -0.910041   -0.000425   -1.169298
      5          8           0       -0.914625    0.000144    1.171147
 ---------------------------------------------------------------------
                    Distance matrix (angstroms):
                    1          2          3          4          5
     1  S    0.000000
     2  O    1.473122   0.000000
     3  O    1.473123   2.469327   0.000000
     4  O    1.510758   2.443584   2.443585   0.000000
     5  O    1.510319   2.449988   2.449987   2.340450   0.000000
 Stoichiometry    O4S(1-,2)
 Framework group  C1[X(O4S)]
 Deg. of freedom     9
 Full point group                 C1      NOp   1
 Largest Abelian subgroup         C1      NOp   1
 Largest concise Abelian subgroup C1      NOp   1
                         Standard orientation:                         
 ---------------------------------------------------------------------
 Center     Atomic      Atomic             Coordinates (Angstroms)
 Number     Number       Type             X           Y           Z
 ---------------------------------------------------------------------
      1         16           0        0.050440    0.000000   -0.004011
      2          8           0        0.853805   -1.234648   -0.022348
      3          8           0        0.853760    1.234679   -0.022330
      4          8           0       -0.867372   -0.000025    1.195994
      5          8           0       -0.941072   -0.000007   -1.143295
 ---------------------------------------------------------------------
 Rotational constants (GHZ):      5.4595392      5.4107938      5.1378375
 Standard basis: 6-311++G(d,p) (5D, 7F)
 There are   118 symmetry adapted basis functions of A   symmetry.
 Integral buffers will be    131072 words long.
 Raffenetti 2 integral format.
 Two-electron integral symmetry is turned on.
   118 basis functions,   194 primitive gaussians,   123 cartesian basis functions
    25 alpha electrons       24 beta electrons
       nuclear repulsion energy       265.1955153789 Hartrees.
 NAtoms=    5 NActive=    5 NUniq=    5 SFac= 7.50D-01 NAtFMM=   80 NAOKFM=F Big=F
 ------------------------------------------------------------------------------
 Polarizable Continuum Model (PCM)
 =================================
 Model                : PCM.
 Atomic radii         : SMD-Coulomb.
 Polarization charges : Total charges.
 Charge compensation  : None.
 Solution method      : Matrix inversion.
 Cavity type          : VdW (van der Waals Surface) (Alpha=1.000).
 Cavity algorithm     : GePol (No added spheres)
                        Default sphere list used, NSphG=    5.
                        Lebedev-Laikov grids with approx.  5.0 points / Ang**2.
                        Smoothing algorithm: Karplus/York (Gamma=1.0000).
                        Polarization charges: spherical gaussians, with
                                              point-specific exponents (IZeta= 3).
                        Self-potential: point-specific (ISelfS= 7).
                        Self-field    : sphere-specific E.n sum rule (ISelfD= 2).
 1st derivatives      : Analytical E(r).r(x)/FMM algorithm (CHGder, D1EAlg=3).
                        Cavity 1st derivative terms included.
 Solvent              : Water, Eps=  78.355300 Eps(inf)=   1.777849
 ------------------------------------------------------------------------------
 Spheres list:
 ISph  on   Nord    Re0     Alpha      Xe            Ye            Ze
    1   S      1    2.490   1.000      0.050440      0.000000     -0.004011
    2   O      2    1.520   1.000      0.853805     -1.234648     -0.022348
    3   O      3    1.520   1.000      0.853760      1.234679     -0.022330
    4   O      4    1.520   1.000     -0.867372     -0.000025      1.195994
    5   O      5    1.520   1.000     -0.941072     -0.000007     -1.143295
 ------------------------------------------------------------------------------
 ------------------------------------------------------------------------------
 Atomic radii for non-electrostatic terms: SMD-CDS.
 ------------------------------------------------------------------------------
 Nuclear repulsion after PCM non-electrostatic terms =      265.1954464513 Hartrees.
 One-electron integrals computed using PRISM.
 NBasis=   118 RedAO= T  NBF=   118
 NBsUse=   118 1.00D-06 NBFU=   118
 Initial guess read from the read-write file.
 B after Tr=     0.000000    0.000000    0.000000
         Rot=    1.000000    0.000000    0.000000    0.000000 Ang=   0.00 deg.
 Initial guess orbital symmetries:
 Alpha Orbitals:
       Occupied  (A) (A) (A) (A) (A) (A) (A) (A) (A) (A) (A) (A)
                 (A) (A) (A) (A) (A) (A) (A) (A) (A) (A) (A) (A)
                 (A)
       Virtual   (A) (A) (A) (A) (A) (A) (A) (A) (A) (A) (A) (A)
                 (A) (A) (A) (A) (A) (A) (A) (A) (A) (A) (A) (A)
                 (A) (A) (A) (A) (A) (A) (A) (A) (A) (A) (A) (A)
                 (A) (A) (A) (A) (A) (A) (A) (A) (A) (A) (A) (A)
                 (A) (A) (A) (A) (A) (A) (A) (A) (A) (A) (A) (A)
                 (A) (A) (A) (A) (A) (A) (A) (A) (A) (A) (A) (A)
                 (A) (A) (A) (A) (A) (A) (A) (A) (A) (A) (A) (A)
                 (A) (A) (A) (A) (A) (A) (A) (A) (A)
 Beta  Orbitals:
       Occupied  (A) (A) (A) (A) (A) (A) (A) (A) (A) (A) (A) (A)
                 (A) (A) (A) (A) (A) (A) (A) (A) (A) (A) (A) (A)
       Virtual   (A) (A) (A) (A) (A) (A) (A) (A) (A) (A) (A) (A)
                 (A) (A) (A) (A) (A) (A) (A) (A) (A) (A) (A) (A)
                 (A) (A) (A) (A) (A) (A) (A) (A) (A) (A) (A) (A)
                 (A) (A) (A) (A) (A) (A) (A) (A) (A) (A) (A) (A)
                 (A) (A) (A) (A) (A) (A) (A) (A) (A) (A) (A) (A)
                 (A) (A) (A) (A) (A) (A) (A) (A) (A) (A) (A) (A)
                 (A) (A) (A) (A) (A) (A) (A) (A) (A) (A) (A) (A)
                 (A) (A) (A) (A) (A) (A) (A) (A) (A) (A)
 Initial guess <Sx>= 0.0000 <Sy>= 0.0000 <Sz>= 0.5000 <S**2>= 0.7657 S= 0.5078
 Harris functional with IExCor= 1009 diagonalized for initial guess.
 ExpMin= 4.05D-02 ExpMax= 9.34D+04 ExpMxC= 3.17D+03 IAcc=2 IRadAn=         0 AccDes= 0.00D+00
[...]
     4  O(17)              0.08428     -51.08811     -18.22951     -17.04116
     5  O(17)              0.08427     -51.08288     -18.22764     -17.03941
 --------------------------------------------------------
       Center         ----  Spin Dipole Couplings  ----
                      3XX-RR        3YY-RR        3ZZ-RR
 --------------------------------------------------------
     1   Atom       -0.030240      0.046938     -0.016697
     2   Atom       -0.066098     -0.066147      0.132246
     3   Atom       -0.066098     -0.066147      0.132246
     4   Atom       -0.052929     -1.093935      1.146864
     5   Atom       -0.053876     -1.089251      1.143127
 --------------------------------------------------------
                        XY            XZ            YZ
 --------------------------------------------------------
     1   Atom        0.000000     -0.000174      0.000000
     2   Atom        0.002516      0.000028      0.000112
     3   Atom       -0.002516      0.000028     -0.000111
     4   Atom        0.000000     -1.582999     -0.000001
     5   Atom        0.000008      1.575953      0.000012
 --------------------------------------------------------


 ---------------------------------------------------------------------------------
              Anisotropic Spin Dipole Couplings in Principal Axis System
 ---------------------------------------------------------------------------------

       Atom             a.u.   MegaHertz   Gauss  10(-4) cm-1        Axes

              Baa    -0.0302    -1.240    -0.442    -0.414  0.9999  0.0000  0.0128
     1 S(33)  Bbb    -0.0167    -0.684    -0.244    -0.228 -0.0128  0.0000  0.9999
              Bcc     0.0469     1.924     0.687     0.642  0.0000  1.0000  0.0000
 
              Baa    -0.0686     4.967     1.772     1.657 -0.7037  0.7105 -0.0003
     2 O(17)  Bbb    -0.0636     4.603     1.642     1.535  0.7105  0.7037 -0.0005
              Bcc     0.1322    -9.569    -3.415    -3.192  0.0001  0.0006  1.0000
 
              Baa    -0.0686     4.967     1.772     1.657  0.7037  0.7105  0.0003
     3 O(17)  Bbb    -0.0636     4.603     1.642     1.535  0.7105 -0.7037 -0.0005
              Bcc     0.1322    -9.569    -3.415    -3.192  0.0002 -0.0006  1.0000
 
              Baa    -1.1459    82.916    29.586    27.658  0.8229  0.0000  0.5682
     4 O(17)  Bbb    -1.0939    79.156    28.245    26.404  0.0000  1.0000  0.0000
              Bcc     2.2398  -162.072   -57.831   -54.061 -0.5682  0.0000  0.8229
 
              Baa    -1.1411    82.573    29.464    27.543  0.8231  0.0000 -0.5679
     5 O(17)  Bbb    -1.0893    78.817    28.124    26.291  0.0000  1.0000  0.0000
              Bcc     2.2304  -161.390   -57.588   -53.834  0.5679  0.0000  0.8231
 

 ---------------------------------------------------------------------------------

 D2PCM: PCM CHGder 2nd derivatives, FixD1E=F FixD2E=F DoIter=F DoCFld=F I1PDM=0
 Calling FoFJK, ICntrl=    100127 FMM=F ISym2X=0 I1Cent= 0 IOpClX= 1 NMat=1 NMatS=1 NMatT=0.
 Full mass-weighted force constant matrix:
 Low frequencies ---  -30.2677  -28.4211   -7.6965    0.0010    0.0025    0.0033
 Low frequencies ---  275.4409  360.0570  383.2350
 Diagonal vibrational polarizability:
       23.2020379      20.6369957      61.1891235
 Harmonic frequencies (cm**-1), IR intensities (KM/Mole), Raman scattering
 activities (A**4/AMU), depolarization ratios for plane and unpolarized
 incident light, reduced masses (AMU), force constants (mDyne/A),
 and normal coordinates:
                     1                      2                      3
                     A                      A                      A
 Frequencies --   275.4385               360.0512               383.2350
 Red. masses --    23.8364                15.9949                16.2103
 Frc consts  --     1.0655                 1.2217                 1.4027
 IR Inten    --   133.4064                 0.0000                 4.1892
  Atom  AN      X      Y      Z        X      Y      Z        X      Y      Z
     1  16     0.00   0.00   0.70     0.00   0.00   0.00     0.12   0.00   0.01
     2   8     0.00   0.00  -0.42     0.00   0.00   0.47     0.31  -0.13   0.00
     3   8     0.00   0.00  -0.42     0.00   0.00  -0.47     0.31   0.13   0.00
     4   8     0.03   0.00  -0.29     0.00  -0.53   0.00    -0.42   0.00   0.45
     5   8    -0.02   0.00  -0.28     0.00   0.52   0.00    -0.43   0.00  -0.45
                     4                      5                      6
                     A                      A                      A
 Frequencies --   532.8111               535.4212               650.3293
 Red. masses --    18.1609                17.9377                16.0428
 Frc consts  --     3.0376                 3.0298                 3.9976
 IR Inten    --    85.0841               113.3203               217.9331
  Atom  AN      X      Y      Z        X      Y      Z        X      Y      Z
     1  16     0.00   0.37   0.00     0.35   0.00   0.00     0.00   0.00   0.05
     2   8     0.46   0.09   0.00    -0.36   0.47   0.00     0.00   0.00   0.29
     3   8    -0.46   0.09   0.00    -0.36  -0.47   0.00     0.00   0.00   0.29
     4   8     0.00  -0.46   0.00     0.01   0.00   0.30    -0.54   0.00  -0.35
     5   8     0.00  -0.46   0.00     0.01   0.00  -0.30     0.54   0.00  -0.35
                     7                      8                      9
                     A                      A                      A
 Frequencies --   957.1767              1157.4821              1221.9694
 Red. masses --    16.5144                19.5104                20.3195
 Frc consts  --     8.9145                15.4009                17.8765
 IR Inten    --    53.2460               509.4388               697.5447
  Atom  AN      X      Y      Z        X      Y      Z        X      Y      Z
     1  16    -0.18   0.00   0.00     0.47   0.00   0.00     0.00   0.52   0.00
     2   8    -0.20  -0.32   0.00    -0.32  -0.48   0.00    -0.32  -0.51   0.00
     3   8    -0.20   0.32   0.00    -0.32   0.48   0.00     0.32  -0.51   0.00
     4   8     0.38   0.00   0.45    -0.14   0.00  -0.18     0.00  -0.01   0.00
     5   8     0.38   0.00  -0.45    -0.15   0.00   0.18     0.00  -0.01   0.00

 -------------------
 - Thermochemistry -
 -------------------
 Temperature   298.150 Kelvin.  Pressure   1.00000 Atm.
 Atom     1 has atomic number 16 and mass  31.97207
 Atom     2 has atomic number  8 and mass  15.99491
 Atom     3 has atomic number  8 and mass  15.99491
 Atom     4 has atomic number  8 and mass  15.99491
 Atom     5 has atomic number  8 and mass  15.99491
 Molecular mass:    95.95173 amu.
 Principal axes and moments of inertia in atomic units:
                           1         2         3
     Eigenvalues --   310.16897 334.51272 366.39201
           X            1.00000   0.00000   0.00000
           Y            0.00000   1.00000   0.00000
           Z            0.00000   0.00000   1.00000
 This molecule is an asymmetric top.
 Rotational symmetry number  1.
 Rotational temperatures (Kelvin)      0.27925     0.25893     0.23640
 Rotational constants (GHZ):           5.81857     5.39513     4.92571
 Zero-point vibrational energy      36330.1 (Joules/Mol)
                                    8.68310 (Kcal/Mol)
 Warning -- explicit consideration of   5 degrees of freedom as
           vibrations may cause significant error
 Vibrational temperatures:    396.29   518.03   551.39   766.60   770.35
          (Kelvin)            935.68  1377.16  1665.36  1758.14
 
 Zero-point correction=                           0.013837 (Hartree/Particle)
 Thermal correction to Energy=                    0.018411
 Thermal correction to Enthalpy=                  0.019355
 Thermal correction to Gibbs Free Energy=        -0.014641
 Sum of electronic and zero-point Energies=           -699.099756
 Sum of electronic and thermal Energies=              -699.095182
 Sum of electronic and thermal Enthalpies=            -699.094238
 Sum of electronic and thermal Free Energies=         -699.128235
 
                     E (Thermal)             CV                S
                      KCal/Mol        Cal/Mol-Kelvin    Cal/Mol-Kelvin
 Total                   11.553             14.869             71.552
 Electronic               0.000              0.000              1.377
 Translational            0.889              2.981             39.595
 Rotational               0.889              2.981             25.145
 Vibrational              9.776              8.907              5.435
 Vibration     1          0.677              1.719              1.562
 Vibration     2          0.735              1.555              1.122
 Vibration     3          0.752              1.506              1.026
 Vibration     4          0.888              1.177              0.581
 Vibration     5          0.890              1.172              0.575
                       Q            Log10(Q)             Ln(Q)
 Total Bot       0.542727D+07          6.734581         15.506947
 Total V=0       0.125698D+14         13.099328         30.162317
 Vib (Bot)       0.105243D-05         -5.977808        -13.764411
 Vib (Bot)    1  0.699690D+00         -0.155094         -0.357118
 Vib (Bot)    2  0.509051D+00         -0.293239         -0.675207
 Vib (Bot)    3  0.470718D+00         -0.327239         -0.753496
 Vib (Bot)    4  0.299374D+00         -0.523786         -1.206061
 Vib (Bot)    5  0.297187D+00         -0.526970         -1.213394
 Vib (V=0)       0.243747D+01          0.386939          0.890959
 Vib (V=0)    1  0.135998D+01          0.133533          0.307470
 Vib (V=0)    2  0.121354D+01          0.084052          0.193538
 Vib (V=0)    3  0.118671D+01          0.074346          0.171188
 Vib (V=0)    4  0.108277D+01          0.034538          0.079526
 Vib (V=0)    5  0.108165D+01          0.034088          0.078490
 Electronic      0.200000D+01          0.301030          0.693147
 Translational   0.369432D+08          7.567534         17.424892
 Rotational      0.697951D+05          4.843825         11.153319
 ***** Axes restored to original set *****
 -------------------------------------------------------------------
 Center     Atomic                   Forces (Hartrees/Bohr)
 Number     Number              X              Y              Z
 -------------------------------------------------------------------
      1       16          -0.000127605   -0.000000308   -0.000064040
      2        8           0.000043821    0.000020702    0.000003327
      3        8           0.000043416   -0.000020255    0.000003415
      4        8           0.000044444   -0.000000039   -0.000008416
      5        8          -0.000004077   -0.000000101    0.000065714
 -------------------------------------------------------------------
 Cartesian Forces:  Max     0.000127605 RMS     0.000045776

 GradGradGradGradGradGradGradGradGradGradGradGradGradGradGradGradGradGrad
 Berny optimization.
 Internal  Forces:  Max     0.000072730 RMS     0.000033416
 Search for a local minimum.
 Step number   1 out of a maximum of    2
 All quantities printed in internal units (Hartrees-Bohrs-Radians)
 Second derivative matrix not updated -- analytic derivatives used.
 The second derivative matrix:
                          R1        R2        R3        R4        A1
           R1           0.58211
           R2           0.03074   0.58211
           R3           0.02288   0.02288   0.32564
           R4           0.02290   0.02290   0.12557   0.32752
           A1           0.00986   0.00986  -0.00090  -0.01236   0.05455
           A2           0.01094  -0.00961   0.01891  -0.03507  -0.02159
           A3           0.02414  -0.02680  -0.03375   0.02370  -0.03060
           A4          -0.00961   0.01094   0.01891  -0.03507  -0.02159
           A5          -0.02680   0.02414  -0.03375   0.02370  -0.03060
           A6          -0.01286  -0.01286   0.03621   0.04469   0.04271
           D1           0.01474   0.01474   0.03123  -0.07725   0.03814
           D2          -0.01133  -0.01133   0.05935  -0.02374  -0.02262
           D3           0.01201  -0.02333   0.02967  -0.01187  -0.01131
           D4           0.02333  -0.01201  -0.02967   0.01187   0.01131
                          A2        A3        A4        A5        A6
           A2           0.05665
           A3          -0.00312   0.15610
           A4          -0.00008   0.01849   0.05665
           A5           0.01849  -0.09415  -0.00312   0.15610
           A6          -0.05281  -0.04601  -0.05282  -0.04601   0.16946
           D1           0.01879  -0.02899   0.01879  -0.02899  -0.03179
           D2           0.01657  -0.01109   0.01657  -0.01109   0.02026
           D3           0.03701   0.01343  -0.02044  -0.02453   0.01013
           D4           0.02044   0.02453  -0.03701  -0.01343  -0.01013
                          D1        D2        D3        D4
           D1           0.08484
           D2          -0.00273   0.05032
           D3          -0.00137   0.02516   0.04907
           D4           0.00137  -0.02516   0.02391   0.04907
     Eigenvalues ---    0.02273   0.11592   0.11851   0.23918   0.24869
     Eigenvalues ---    0.29950   0.46566   0.56412   0.625871000.00000
     Eigenvalues --- 1000.000001000.000001000.000001000.00000
 Angle between quadratic step and forces=  55.14 degrees.
 Linear search not attempted -- first point.
 Iteration  1 RMS(Cart)=  0.00028346 RMS(Int)=  0.00000019
 Iteration  2 RMS(Cart)=  0.00000014 RMS(Int)=  0.00000012
 Variable       Old X    -DE/DX   Delta X   Delta X   Delta X     New X
                                 (Linear)    (Quad)   (Total)
    R1        2.75736   0.00004   0.00000   0.00010   0.00010   2.75746
    R2        2.75736   0.00004   0.00000   0.00010   0.00010   2.75746
    R3        2.87747  -0.00002   0.00000  -0.00081  -0.00081   2.87666
    R4        2.87635   0.00005   0.00000   0.00070   0.00070   2.87705
    A1        1.98923  -0.00001   0.00000  -0.00019  -0.00019   1.98904
    A2        1.95523  -0.00001   0.00000   0.00035   0.00035   1.95558
    A3        1.95576  -0.00001   0.00000  -0.00039  -0.00039   1.95538
    A4        1.95523  -0.00001   0.00000   0.00035   0.00035   1.95558
    A5        1.95577  -0.00001   0.00000  -0.00039  -0.00039   1.95538
    A6        1.62189   0.00007   0.00000   0.00038   0.00038   1.62227
    D1        2.26076  -0.00004   0.00000   0.00033   0.00033   2.26109
    D2       -2.26168   0.00003   0.00000   0.00093   0.00093  -2.26075
    D3        2.01075   0.00002   0.00000   0.00047   0.00047   2.01122
    D4       -2.01075  -0.00002   0.00000  -0.00047  -0.00047  -2.01122
         Item               Value     Threshold  Converged?
 Maximum Force            0.000073     0.000450     YES
 RMS     Force            0.000033     0.000300     YES
 Maximum Displacement     0.000778     0.001800     YES
 RMS     Displacement     0.000284     0.001200     YES
 Predicted change in Energy=-6.486980D-08
 Optimization completed.
    -- Stationary point found.
                           ----------------------------
                           !   Optimized Parameters   !
                           ! (Angstroms and Degrees)  !
 --------------------------                            --------------------------
 ! Name  Definition              Value          Derivative Info.                !
 --------------------------------------------------------------------------------
 ! R1    R(1,2)                  1.4591         -DE/DX =    0.0                 !
 ! R2    R(1,3)                  1.4591         -DE/DX =    0.0                 !
 ! R3    R(1,4)                  1.5227         -DE/DX =    0.0                 !
 ! R4    R(1,5)                  1.5221         -DE/DX =    0.0001              !
 ! A1    A(2,1,3)              113.9746         -DE/DX =    0.0                 !
 ! A2    A(2,1,4)              112.0265         -DE/DX =    0.0                 !
 ! A3    A(2,1,5)              112.0571         -DE/DX =    0.0                 !
 ! A4    A(3,1,4)              112.0265         -DE/DX =    0.0                 !
 ! A5    A(3,1,5)              112.0571         -DE/DX =    0.0                 !
 ! A6    A(4,1,5)               92.9275         -DE/DX =    0.0001              !
 ! D1    D(2,1,4,3)            129.5319         -DE/DX =    0.0                 !
 ! D2    D(2,1,5,3)           -129.5846         -DE/DX =    0.0                 !
 ! D3    D(2,1,5,4)            115.2077         -DE/DX =    0.0                 !
 ! D4    D(3,1,5,4)           -115.2077         -DE/DX =    0.0                 !
 --------------------------------------------------------------------------------
 GradGradGradGradGradGradGradGradGradGradGradGradGradGradGradGradGradGrad

 1\1\GINC-NODE60\Freq\UM062X\6-311++G(d,p)\O4S1(1-,2)\XIAO53\09-Oct-201
 5\0\\#N Geom=AllCheck Guess=TCheck SCRF=Check GenChk UM062X/6-311++G(d
 ,p) Freq\\SO4-_m\\-1,2\S,0.0836354051,0.0000176312,0.0003509862\O,0.87
 8414011,1.2236991795,-0.0003711312\O,0.8788017337,-1.2234128049,0.0002
 232116\O,-0.9651139581,-0.0004165464,-1.1036052369\O,-0.9649081917,0.0
 001205406,1.1036811703\\Version=EM64L-G09RevA.02\State=2-A\HF=-699.113
 5932\S2=0.762374\S2-1=0.\S2A=0.75005\RMSD=2.237e-10\RMSF=4.578e-05\Zer
 oPoint=0.0138374\Thermal=0.0184111\Dipole=-0.2375005,-0.0000374,-0.001
 2847\DipoleDeriv=3.4106347,-0.0000313,-0.0005924,-0.0000316,3.6008531,
 -0.001421,-0.0025159,-0.0014217,-2.2405488,-1.2163281,-0.437421,0.0002
 691,-0.404362,-1.6109143,0.0003931,0.0005458,0.0003911,-0.2337817,-1.2
 165952,0.4375463,0.0000574,0.4044872,-1.6106482,0.000276,0.0003494,0.0
 002787,-0.2337822,-0.987498,0.0001874,0.9629639,-0.0001353,-0.6886916,
 0.0005288,-0.3630992,0.0003196,0.8600642,-0.9902134,-0.0002814,-0.9626
 98,0.0000417,-0.690599,0.000223,0.36472,0.0004322,0.8480485\Polar=43.8
 172025,-0.0003763,46.1332936,0.0137877,0.0099168,86.8189037\PG=C01 [X(
 O4S1)]\NImag=0\\0.73417441,-0.00001754,0.85136182,-0.00054874,-0.00019
 150,0.06346056,-0.19631262,-0.18772715,0.00011099,0.22498786,-0.191559
 65,-0.36717579,0.00019008,0.23199005,0.43140751,0.00007337,0.00017463,
 -0.00987754,-0.00014122,-0.00020138,0.04430805,-0.19643216,0.18777987,
 0.00001996,0.01301681,-0.01537249,0.00000878,0.22513408,0.19161233,-0.
 36705421,-0.00001658,0.01539506,-0.05821525,0.00000943,-0.23205398,0.4
 3125918,-0.00001962,-0.00000109,-0.00987760,0.00000132,0.00002361,0.00
 981641,-0.00002854,0.00001339,0.04430801,-0.17039973,-0.00002092,-0.01
 377223,-0.02084793,-0.01254005,-0.04074789,-0.02086134,0.01251461,-0.0
 4076012,0.18060184,-0.00005507,-0.05852452,0.00000695,-0.02981744,-0.0
 0301642,-0.01960945,0.02980483,-0.00299181,0.01958720,0.00005368,0.053
 99415,-0.15417790,-0.00001523,-0.02100692,-0.01432791,-0.00356886,-0.0
 2219124,-0.01434351,0.00355500,-0.02220246,0.13889893,0.00005571,0.192
 65890,-0.17102989,-0.00001427,0.01419001,-0.02084412,-0.01251786,0.040
 80696,-0.02085738,0.01253197,0.04080697,0.03150717,0.00001399,0.043950
 39,0.18122422,0.00001992,-0.05860731,0.00001105,-0.02984053,-0.0030000
 6,0.01962676,0.02984176,-0.00299791,-0.01962311,-0.00000733,0.01053859
 ,-0.00002662,-0.00001383,0.05406669,0.15467289,0.00003319,-0.02269850,
 0.01435681,0.00355655,-0.02205568,0.01434331,-0.00356124,-0.02204436,-
 0.04361868,-0.00004041,-0.12725828,-0.13975433,0.00001191,0.19405681\\
 0.00012760,0.00000031,0.00006404,-0.00004382,-0.00002070,-0.00000333,-
 0.00004342,0.00002026,-0.00000342,-0.00004444,0.00000004,0.00000842,0.
 00000408,0.00000010,-0.00006571\\\@


 NEVER TEACH A PIG TO SING.
 IT WASTES YOUR TIME AND ANNOYS THE PIG.
     -- SEEN ON A GREETING CARD
 Job cpu time:  0 days  0 hours 10 minutes  1.6 seconds.
 File lengths (MBytes):  RWF=     31 Int=      0 D2E=      0 Chk=      5 Scr=      1
 Normal termination of Gaussian 09 at Fri Oct  9 01:40:54 2015.

g09 job started: Fri Oct 9 01:31:41 CST 2015
g09 job finished: Fri Oct 9 01:40:54 CST 2015
Elapsed time: 553
