 Entering Link 1 = C:\G09W\l1.exe PID=     13884.
  
 Copyright (c) 1988,1990,1992,1993,1995,1998,2003,2009, Gaussian, Inc.
                  All Rights Reserved.
  
 This is part of the Gaussian(R) 09 program.  It is based on
 the Gaussian(R) 03 system (copyright 2003, Gaussian, Inc.),
 the Gaussian(R) 98 system (copyright 1998, Gaussian, Inc.),
 the Gaussian(R) 94 system (copyright 1995, Gaussian, Inc.),
 the Gaussian 92(TM) system (copyright 1992, Gaussian, Inc.),
 the Gaussian 90(TM) system (copyright 1990, Gaussian, Inc.),
 the Gaussian 88(TM) system (copyright 1988, Gaussian, Inc.),
 the Gaussian 86(TM) system (copyright 1986, Carnegie Mellon
 University), and the Gaussian 82(TM) system (copyright 1983,
 Carnegie Mellon University). Gaussian is a federally registered
 trademark of Gaussian, Inc.
  
 This software contains proprietary and confidential information,
 including trade secrets, belonging to Gaussian, Inc.
  
 This software is provided under written license and may be
 used, copied, transmitted, or stored only in accord with that
 written license.
  
 The following legend is applicable only to US Government
 contracts under FAR:
  
                    RESTRICTED RIGHTS LEGEND
  
 Use, reproduction and disclosure by the US Government is
 subject to restrictions as set forth in subparagraphs (a)
 and (c) of the Commercial Computer Software - Restricted
 Rights clause in FAR 52.227-19.
  
 Gaussian, Inc.
 340 Quinnipiac St., Bldg. 40, Wallingford CT 06492
  
  
 ---------------------------------------------------------------
 Warning -- This program may not be used in any manner that
 competes with the business of Gaussian, Inc. or will provide
 assistance to any competitor of Gaussian, Inc.  The licensee
 of this program is prohibited from giving any competitor of
 Gaussian, Inc. access to this program.  By using this program,
 the user acknowledges that Gaussian, Inc. is engaged in the
 business of creating and licensing software in the field of
 computational chemistry and represents and warrants to the
 licensee that it is not a competitor of Gaussian, Inc. and that
 it will not use this program in any manner prohibited above.
 ---------------------------------------------------------------
  

 Cite this work as:
 Gaussian 09, Revision A.02,
 M. J. Frisch, G. W. Trucks, H. B. Schlegel, G. E. Scuseria, 
 M. A. Robb, J. R. Cheeseman, G. Scalmani, V. Barone, B. Mennucci, 
 G. A. Petersson, H. Nakatsuji, M. Caricato, X. Li, H. P. Hratchian, 
 A. F. Izmaylov, J. Bloino, G. Zheng, J. L. Sonnenberg, M. Hada, 
 M. Ehara, K. Toyota, R. Fukuda, J. Hasegawa, M. Ishida, T. Nakajima, 
 Y. Honda, O. Kitao, H. Nakai, T. Vreven, J. A. Montgomery, Jr., 
 J. E. Peralta, F. Ogliaro, M. Bearpark, J. J. Heyd, E. Brothers, 
 K. N. Kudin, V. N. Staroverov, R. Kobayashi, J. Normand, 
 K. Raghavachari, A. Rendell, J. C. Burant, S. S. Iyengar, J. Tomasi, 
 M. Cossi, N. Rega, J. M. Millam, M. Klene, J. E. Knox, J. B. Cross, 
 V. Bakken, C. Adamo, J. Jaramillo, R. Gomperts, R. E. Stratmann, 
 O. Yazyev, A. J. Austin, R. Cammi, C. Pomelli, J. W. Ochterski, 
 R. L. Martin, K. Morokuma, V. G. Zakrzewski, G. A. Voth, 
 P. Salvador, J. J. Dannenberg, S. Dapprich, A. D. Daniels, 
 O. Farkas, J. B. Foresman, J. V. Ortiz, J. Cioslowski, 
 and D. J. Fox, Gaussian, Inc., Wallingford CT, 2009.
 
 ******************************************
 Gaussian 09:  IA32W-G09RevA.02 11-Jun-2009
                08-Aug-2016 
 ******************************************
 %chk=HCl.chk
 %mem=100MW
 ------------------------------------------
 # opt freq=noraman MP2/aug-cc-pvdz scf=xqc
 ------------------------------------------
 1/18=20,19=15,38=1/1,3;
 2/9=110,12=2,17=6,18=5,40=1/2;
 3/5=16,7=10,11=9,16=1,25=1,30=1,71=1/1,2,3;
 4//1;
 5/5=2,8=3,13=1,38=5/2,8;
 8/6=4,10=1/1;
 9/15=2,16=-3/6;
 10/5=1/2;
 6/7=2,8=2,9=2,10=2/1;
 7/12=2/1,2,3,16;
 1/18=20,19=15/3(2);
 2/9=110/2;
 99//99;
 2/9=110/2;
 3/5=16,7=10,11=9,16=1,25=1,30=1,71=1/1,2,3;
 4/5=5,16=3/1;
 5/5=2,8=3,13=1,38=5/2,8;
 8/6=4,10=1/1;
 9/15=2,16=-3/6;
 10/5=1/2;
 7/12=2/1,2,3,16;
 1/18=20,19=15/3(-8);
 2/9=110/2;
 6/7=2,8=2,9=2,10=2/1;
 99//99;
 -------------------
 Title Card Required
 -------------------
 Symbolic Z-matrix:
 Charge =  0 Multiplicity = 1
 Cl                    0.        0.        0.06131 
 H                     0.        0.       -1.21869 
 

 GradGradGradGradGradGradGradGradGradGradGradGradGradGradGradGradGradGrad
 Berny optimization.
 Initialization pass.
                           ----------------------------
                           !    Initial Parameters    !
                           ! (Angstroms and Degrees)  !
 --------------------------                            --------------------------
 ! Name  Definition              Value          Derivative Info.                !
 --------------------------------------------------------------------------------
 ! R1    R(1,2)                  1.28           estimate D2E/DX2                !
 --------------------------------------------------------------------------------
 Trust Radius=3.00D-01 FncErr=1.00D-07 GrdErr=1.00D-07
 Number of steps in this run=  20 maximum allowed number of steps= 100.
 GradGradGradGradGradGradGradGradGradGradGradGradGradGradGradGradGradGrad

                          Input orientation:                          
 ---------------------------------------------------------------------
 Center     Atomic      Atomic             Coordinates (Angstroms)
 Number     Number       Type             X           Y           Z
 ---------------------------------------------------------------------
      1         17           0        0.000000    0.000000    0.061315
      2          1           0        0.000000    0.000000   -1.218686
 ---------------------------------------------------------------------
 Stoichiometry    ClH
 Framework group  C*V[C*(HCl)]
 Deg. of freedom     1
 Full point group                 C*V     NOp   4
 Largest Abelian subgroup         C2V     NOp   4
 Largest concise Abelian subgroup C1      NOp   1
                         Standard orientation:                         
 ---------------------------------------------------------------------
 Center     Atomic      Atomic             Coordinates (Angstroms)
 Number     Number       Type             X           Y           Z
 ---------------------------------------------------------------------
      1         17           0        0.000000    0.000000    0.071111
      2          1           0        0.000000    0.000000   -1.208889
 ---------------------------------------------------------------------
 Rotational constants (GHZ):      0.0000000    314.8848644    314.8848644
 Standard basis: Aug-CC-pVDZ (5D, 7F)
 There are    18 symmetry adapted basis functions of A1  symmetry.
 There are     2 symmetry adapted basis functions of A2  symmetry.
 There are     8 symmetry adapted basis functions of B1  symmetry.
 There are     8 symmetry adapted basis functions of B2  symmetry.
 Integral buffers will be    262144 words long.
 Raffenetti 1 integral format.
 Two-electron integral symmetry is turned on.
    36 basis functions,    92 primitive gaussians,    38 cartesian basis functions
     9 alpha electrons        9 beta electrons
       nuclear repulsion energy         7.0281348016 Hartrees.
 NAtoms=    2 NActive=    2 NUniq=    2 SFac= 7.50D-01 NAtFMM=   80 NAOKFM=F Big=F
 One-electron integrals computed using PRISM.
 NBasis=    36 RedAO= T  NBF=    18     2     8     8
 NBsUse=    36 1.00D-06 NBFU=    18     2     8     8
 Harris functional with IExCor=  205 diagonalized for initial guess.
 ExpMin= 2.97D-02 ExpMax= 1.28D+05 ExpMxC= 1.24D+03 IAcc=3 IRadAn=         0 AccDes= 0.00D+00
 HarFok:  IExCor=  205 AccDes= 0.00D+00 IRadAn=         0 IDoV= 1
 ScaDFX=  1.000000  1.000000  1.000000  1.000000
 FoFCou: FMM=F IPFlag=           0 FMFlag=      100000 FMFlg1=           0
         NFxFlg=           0 DoJE=T BraDBF=F KetDBF=T FulRan=T
         Omega=  0.000000  0.000000  1.000000  0.000000  0.000000 ICntrl=     500 IOpCl=  0
         NMat0=    1 NMatS0=    1 NMatT0=    0 NMatD0=    1 NMtDS0=    0 NMtDT0=    0
         I1Cent=           4 NGrid=           0.
 Petite list used in FoFCou.
 Initial guess orbital symmetries:
       Occupied  (SG) (SG) (SG) (PI) (PI) (SG) (SG) (PI) (PI)
       Virtual   (SG) (SG) (SG) (PI) (PI) (SG) (PI) (PI) (DLTA)
                 (DLTA) (SG) (PI) (PI) (SG) (SG) (PI) (PI) (SG)
                 (DLTA) (DLTA) (PI) (PI) (SG) (SG) (PI) (PI) (SG)
 The electronic state of the initial guess is 1-SG.
 Requested convergence on RMS density matrix=1.00D-08 within  64 cycles.
 Requested convergence on MAX density matrix=1.00D-06.
 Requested convergence on             energy=1.00D-06.
 No special actions if energy rises.
 Keep R1 ints in memory in canonical form, NReq=1105274.
 SCF Done:  E(RHF) =  -460.092614460     A.U. after    9 cycles
             Convg  =    0.5903D-08             -V/T =  2.0001
 QCSCF skips out because SCF is already converged.
 ExpMin= 2.97D-02 ExpMax= 1.28D+05 ExpMxC= 1.24D+03 IAcc=3 IRadAn=         5 AccDes= 0.00D+00
 HarFok:  IExCor=  205 AccDes= 0.00D+00 IRadAn=         5 IDoV=-2
 ScaDFX=  1.000000  1.000000  1.000000  1.000000
 Range of M.O.s used for correlation:     6    36
 NBasis=    36 NAE=     9 NBE=     9 NFC=     5 NFV=     0
 NROrb=     31 NOA=     4 NOB=     4 NVA=    27 NVB=    27
 Fully direct method using O(ONN) memory.
 JobTyp=1 Pass  1:  I=   6 to   9 NPSUse=  1 ParTrn=F ParDer=F DoDerP=T.
 Spin components of T(2) and E(2):
     alpha-alpha T2 =       0.8159266248D-02 E2=     -0.1996961385D-01
     alpha-beta  T2 =       0.4608499448D-01 E2=     -0.1192303957D+00
     beta-beta   T2 =       0.8159266248D-02 E2=     -0.1996961385D-01
 ANorm=    0.1030729609D+01
 E2 =    -0.1591696234D+00 EUMP2 =    -0.46025178408376D+03
          IDoAtm=11
          Differentiating once with respect to electric field.
                with respect to dipole field.
          Differentiating once with respect to nuclear coordinates.
          Keep R1 ints in memory in canonical form, NReq=1095304.
          There are     1 degrees of freedom in the 1st order CPHF.  IDoFFX=0.
 LinEq1:  Iter=  0 NonCon=     1 RMS=3.70D-03 Max=2.11D-02
 AX will form     1 AO Fock derivatives at one time.
 LinEq1:  Iter=  1 NonCon=     1 RMS=6.12D-04 Max=6.18D-03
 LinEq1:  Iter=  2 NonCon=     1 RMS=1.55D-04 Max=8.94D-04
 LinEq1:  Iter=  3 NonCon=     1 RMS=2.41D-05 Max=1.43D-04
 LinEq1:  Iter=  4 NonCon=     1 RMS=3.71D-06 Max=2.20D-05
 LinEq1:  Iter=  5 NonCon=     1 RMS=6.89D-07 Max=4.53D-06
 LinEq1:  Iter=  6 NonCon=     1 RMS=6.76D-08 Max=3.70D-07
 LinEq1:  Iter=  7 NonCon=     1 RMS=4.23D-09 Max=2.93D-08
 LinEq1:  Iter=  8 NonCon=     1 RMS=3.31D-10 Max=1.95D-09
 LinEq1:  Iter=  9 NonCon=     0 RMS=2.89D-11 Max=2.27D-10
 Linear equations converged to 1.000D-10 1.000D-09 after     9 iterations.
 End of Minotr Frequency-dependent properties file   721 does not exist.
 End of Minotr Frequency-dependent properties file   722 does not exist.

 **********************************************************************

            Population analysis using the SCF density.

 **********************************************************************

 Orbital symmetries:
       Occupied  (SG) (SG) (SG) (PI) (PI) (SG) (SG) (PI) (PI)
       Virtual   (SG) (SG) (PI) (PI) (SG) (SG) (PI) (PI) (DLTA)
                 (DLTA) (SG) (SG) (PI) (PI) (SG) (PI) (PI) (SG)
                 (PI) (PI) (DLTA) (DLTA) (SG) (SG) (PI) (PI) (SG)
 The electronic state is 1-SG.
 Alpha  occ. eigenvalues -- -104.85109 -10.57686  -8.04478  -8.04125  -8.04125
 Alpha  occ. eigenvalues --   -1.11881  -0.62553  -0.47732  -0.47732
 Alpha virt. eigenvalues --    0.03516   0.12592   0.13816   0.13816   0.18103
 Alpha virt. eigenvalues --    0.21473   0.31938   0.31938   0.47135   0.47135
 Alpha virt. eigenvalues --    0.49203   0.57484   0.60820   0.60820   0.89494
 Alpha virt. eigenvalues --    0.92370   0.92370   1.03262   1.38580   1.38580
 Alpha virt. eigenvalues --    1.38587   1.38587   1.45052   1.78794   1.85826
 Alpha virt. eigenvalues --    1.85826   2.42909
          Condensed to atoms (all electrons):
              1          2
     1  Cl  16.798804   0.329673
     2  H    0.329673   0.541851
 Mulliken atomic charges:
              1
     1  Cl  -0.128477
     2  H    0.128477
 Sum of Mulliken atomic charges =   0.00000
 Mulliken charges with hydrogens summed into heavy atoms:
              1
     1  Cl   0.000000
 Sum of Mulliken charges with hydrogens summed into heavy atoms =   0.00000
 Electronic spatial extent (au):  <R**2>=             34.2662
 Charge=              0.0000 electrons
 Dipole moment (field-independent basis, Debye):
    X=              0.0000    Y=              0.0000    Z=             -1.2470  Tot=              1.2470
 Quadrupole moment (field-independent basis, Debye-Ang):
   XX=            -14.1566   YY=            -14.1566   ZZ=            -10.3438
   XY=              0.0000   XZ=              0.0000   YZ=              0.0000
 Traceless Quadrupole moment (field-independent basis, Debye-Ang):
   XX=             -1.2709   YY=             -1.2709   ZZ=              2.5418
   XY=              0.0000   XZ=              0.0000   YZ=              0.0000
 Octapole moment (field-independent basis, Debye-Ang**2):
  XXX=              0.0000  YYY=              0.0000  ZZZ=             -2.7088  XYY=              0.0000
  XXY=              0.0000  XXZ=             -0.1406  XZZ=              0.0000  YZZ=              0.0000
  YYZ=             -0.1406  XYZ=              0.0000
 Hexadecapole moment (field-independent basis, Debye-Ang**3):
 XXXX=            -16.6166 YYYY=            -16.6166 ZZZZ=            -13.7167 XXXY=              0.0000
 XXXZ=              0.0000 YYYX=              0.0000 YYYZ=              0.0000 ZZZX=              0.0000
 ZZZY=              0.0000 XXYY=             -5.5389 XXZZ=             -5.8345 YYZZ=             -5.8345
 XXYZ=              0.0000 YYXZ=              0.0000 ZZXY=              0.0000
 N-N= 7.028134801586D+00 E-N=-1.109796895016D+03  KE= 4.600638258949D+02
 Symmetry A1   KE= 3.685855452127D+02
 Symmetry A2   KE= 0.000000000000D+00
 Symmetry B1   KE= 4.573914034112D+01
 Symmetry B2   KE= 4.573914034112D+01
 Calling FoFJK, ICntrl=      2127 FMM=F ISym2X=1 I1Cent= 0 IOpClX= 0 NMat=1 NMatS=1 NMatT=0.
 ***** Axes restored to original set *****
 -------------------------------------------------------------------
 Center     Atomic                   Forces (Hartrees/Bohr)
 Number     Number              X              Y              Z
 -------------------------------------------------------------------
      1       17           0.000000000    0.000000000    0.005198991
      2        1           0.000000000    0.000000000   -0.005198991
 -------------------------------------------------------------------
 Cartesian Forces:  Max     0.005198991 RMS     0.003001639

 GradGradGradGradGradGradGradGradGradGradGradGradGradGradGradGradGradGrad
 Berny optimization.
 Internal  Forces:  Max     0.005198991 RMS     0.005198991
 Search for a local minimum.
 Step number   1 out of a maximum of   20
 All quantities printed in internal units (Hartrees-Bohrs-Radians)
 Mixed Optimization -- RFO/linear search
 Second derivative matrix not updated -- first step.
 The second derivative matrix:
                          R1
           R1           0.31869
     Eigenvalues ---    0.31869
 RFO step:  Lambda=-8.47928990D-05 EMin= 3.18686078D-01
 Linear search not attempted -- first point.
 Iteration  1 RMS(Cart)=  0.01153255 RMS(Int)=  0.00000000
 Iteration  2 RMS(Cart)=  0.00000000 RMS(Int)=  0.00000000
 ClnCor:  largest displacement from symmetrization is 0.00D+00 for atom     0.
 Variable       Old X    -DE/DX   Delta X   Delta X   Delta X     New X
                                 (Linear)    (Quad)   (Total)
    R1        2.41885   0.00520   0.00000   0.01631   0.01631   2.43516
         Item               Value     Threshold  Converged?
 Maximum Force            0.005199     0.000450     NO 
 RMS     Force            0.005199     0.000300     NO 
 Maximum Displacement     0.008155     0.001800     NO 
 RMS     Displacement     0.011533     0.001200     NO 
 Predicted change in Energy=-4.240773D-05
 GradGradGradGradGradGradGradGradGradGradGradGradGradGradGradGradGradGrad

                          Input orientation:                          
 ---------------------------------------------------------------------
 Center     Atomic      Atomic             Coordinates (Angstroms)
 Number     Number       Type             X           Y           Z
 ---------------------------------------------------------------------
      1         17           0        0.000000    0.000000    0.065630
      2          1           0        0.000000    0.000000   -1.223001
 ---------------------------------------------------------------------
 Stoichiometry    ClH
 Framework group  C*V[C*(HCl)]
 Deg. of freedom     1
 Full point group                 C*V     NOp   4
 Largest Abelian subgroup         C2V     NOp   4
 Largest concise Abelian subgroup C1      NOp   1
                         Standard orientation:                         
 ---------------------------------------------------------------------
 Center     Atomic      Atomic             Coordinates (Angstroms)
 Number     Number       Type             X           Y           Z
 ---------------------------------------------------------------------
      1         17           0        0.000000    0.000000    0.071591
      2          1           0        0.000000    0.000000   -1.217040
 ---------------------------------------------------------------------
 Rotational constants (GHZ):      0.0000000    310.6811025    310.6811025
 Standard basis: Aug-CC-pVDZ (5D, 7F)
 There are    18 symmetry adapted basis functions of A1  symmetry.
 There are     2 symmetry adapted basis functions of A2  symmetry.
 There are     8 symmetry adapted basis functions of B1  symmetry.
 There are     8 symmetry adapted basis functions of B2  symmetry.
 Integral buffers will be    262144 words long.
 Raffenetti 1 integral format.
 Two-electron integral symmetry is turned on.
    36 basis functions,    92 primitive gaussians,    38 cartesian basis functions
     9 alpha electrons        9 beta electrons
       nuclear repulsion energy         6.9810638262 Hartrees.
 NAtoms=    2 NActive=    2 NUniq=    2 SFac= 7.50D-01 NAtFMM=   80 NAOKFM=F Big=F
 One-electron integrals computed using PRISM.
 NBasis=    36 RedAO= T  NBF=    18     2     8     8
 NBsUse=    36 1.00D-06 NBFU=    18     2     8     8
 Initial guess read from the read-write file.
 B after Tr=     0.000000    0.000000    0.000000
         Rot=    1.000000    0.000000    0.000000    0.000000 Ang=   0.00 deg.
 Initial guess orbital symmetries:
       Occupied  (SG) (SG) (SG) (PI) (PI) (SG) (SG) (PI) (PI)
       Virtual   (SG) (SG) (PI) (PI) (SG) (SG) (PI) (PI) (DLTA)
                 (DLTA) (SG) (SG) (PI) (PI) (SG) (PI) (PI) (SG)
                 (PI) (PI) (DLTA) (DLTA) (SG) (SG) (PI) (PI) (SG)
 Requested convergence on RMS density matrix=1.00D-08 within  64 cycles.
 Requested convergence on MAX density matrix=1.00D-06.
 Requested convergence on             energy=1.00D-06.
 No special actions if energy rises.
 Keep R1 ints in memory in canonical form, NReq=1105274.
 SCF Done:  E(RHF) =  -460.092536258     A.U. after    8 cycles
             Convg  =    0.3802D-08             -V/T =  2.0001
 QCSCF skips out because SCF is already converged.
 ExpMin= 2.97D-02 ExpMax= 1.28D+05 ExpMxC= 1.24D+03 IAcc=3 IRadAn=         5 AccDes= 0.00D+00
 HarFok:  IExCor=  205 AccDes= 0.00D+00 IRadAn=         5 IDoV=-2
 ScaDFX=  1.000000  1.000000  1.000000  1.000000
 Range of M.O.s used for correlation:     6    36
 NBasis=    36 NAE=     9 NBE=     9 NFC=     5 NFV=     0
 NROrb=     31 NOA=     4 NOB=     4 NVA=    27 NVB=    27
 Fully direct method using O(ONN) memory.
 JobTyp=1 Pass  1:  I=   6 to   9 NPSUse=  1 ParTrn=F ParDer=F DoDerP=T.
 Spin components of T(2) and E(2):
     alpha-alpha T2 =       0.8174329660D-02 E2=     -0.1997453999D-01
     alpha-beta  T2 =       0.4623320456D-01 E2=     -0.1193372100D+00
     beta-beta   T2 =       0.8174329660D-02 E2=     -0.1997453999D-01
 ANorm=    0.1030816115D+01
 E2 =    -0.1592862900D+00 EUMP2 =    -0.46025182254833D+03
          IDoAtm=11
          Differentiating once with respect to electric field.
                with respect to dipole field.
          Differentiating once with respect to nuclear coordinates.
          Keep R1 ints in memory in canonical form, NReq=1095304.
          There are     1 degrees of freedom in the 1st order CPHF.  IDoFFX=0.
 LinEq1:  Iter=  0 NonCon=     1 RMS=3.73D-03 Max=2.13D-02
 AX will form     1 AO Fock derivatives at one time.
 LinEq1:  Iter=  1 NonCon=     1 RMS=6.20D-04 Max=6.39D-03
 LinEq1:  Iter=  2 NonCon=     1 RMS=1.58D-04 Max=9.05D-04
 LinEq1:  Iter=  3 NonCon=     1 RMS=2.46D-05 Max=1.47D-04
 LinEq1:  Iter=  4 NonCon=     1 RMS=3.72D-06 Max=2.18D-05
 LinEq1:  Iter=  5 NonCon=     1 RMS=6.99D-07 Max=4.57D-06
 LinEq1:  Iter=  6 NonCon=     1 RMS=6.90D-08 Max=3.77D-07
 LinEq1:  Iter=  7 NonCon=     1 RMS=4.33D-09 Max=2.95D-08
 LinEq1:  Iter=  8 NonCon=     1 RMS=3.38D-10 Max=2.00D-09
 LinEq1:  Iter=  9 NonCon=     0 RMS=2.89D-11 Max=2.31D-10
 Linear equations converged to 1.000D-10 1.000D-09 after     9 iterations.
 End of Minotr Frequency-dependent properties file   721 does not exist.
 End of Minotr Frequency-dependent properties file   722 does not exist.
 Calling FoFJK, ICntrl=      2127 FMM=F ISym2X=1 I1Cent= 0 IOpClX= 0 NMat=1 NMatS=1 NMatT=0.
 ***** Axes restored to original set *****
 -------------------------------------------------------------------
 Center     Atomic                   Forces (Hartrees/Bohr)
 Number     Number              X              Y              Z
 -------------------------------------------------------------------
      1       17           0.000000000    0.000000000   -0.000437864
      2        1           0.000000000    0.000000000    0.000437864
 -------------------------------------------------------------------
 Cartesian Forces:  Max     0.000437864 RMS     0.000252801

 GradGradGradGradGradGradGradGradGradGradGradGradGradGradGradGradGradGrad
 Berny optimization.
 Using GEDIIS/GDIIS optimizer.
 Internal  Forces:  Max     0.000437864 RMS     0.000437864
 Search for a local minimum.
 Step number   2 out of a maximum of   20
 All quantities printed in internal units (Hartrees-Bohrs-Radians)
 Mixed Optimization -- En-DIIS/RFO-DIIS
 Update second derivatives using D2CorX and points    1    2
 DE= -3.85D-05 DEPred=-4.24D-05 R= 9.07D-01
 SS=  1.41D+00  RLast= 1.63D-02 DXNew= 5.0454D-01 4.8928D-02
 Trust test= 9.07D-01 RLast= 1.63D-02 DXMaxT set to 3.00D-01
 The second derivative matrix:
                          R1
           R1           0.34562
 Use linear search instead of GDIIS.
     Eigenvalues ---    0.34562
 RFO step:  Lambda= 0.00000000D+00 EMin= 3.45618089D-01
 Quartic linear search produced a step of -0.07940.
 Iteration  1 RMS(Cart)=  0.00091564 RMS(Int)=  0.00000000
 Iteration  2 RMS(Cart)=  0.00000000 RMS(Int)=  0.00000000
 ClnCor:  largest displacement from symmetrization is 0.00D+00 for atom     0.
 Variable       Old X    -DE/DX   Delta X   Delta X   Delta X     New X
                                 (Linear)    (Quad)   (Total)
    R1        2.43516  -0.00044  -0.00129   0.00000  -0.00129   2.43386
         Item               Value     Threshold  Converged?
 Maximum Force            0.000438     0.000450     YES
 RMS     Force            0.000438     0.000300     NO 
 Maximum Displacement     0.000647     0.001800     YES
 RMS     Displacement     0.000916     0.001200     YES
 Predicted change in Energy=-2.772303D-07
 GradGradGradGradGradGradGradGradGradGradGradGradGradGradGradGradGradGrad

                          Input orientation:                          
 ---------------------------------------------------------------------
 Center     Atomic      Atomic             Coordinates (Angstroms)
 Number     Number       Type             X           Y           Z
 ---------------------------------------------------------------------
      1         17           0        0.000000    0.000000    0.065287
      2          1           0        0.000000    0.000000   -1.222658
 ---------------------------------------------------------------------
 Stoichiometry    ClH
 Framework group  C*V[C*(HCl)]
 Deg. of freedom     1
 Full point group                 C*V     NOp   4
 Largest Abelian subgroup         C2V     NOp   4
 Largest concise Abelian subgroup C1      NOp   1
                         Standard orientation:                         
 ---------------------------------------------------------------------
 Center     Atomic      Atomic             Coordinates (Angstroms)
 Number     Number       Type             X           Y           Z
 ---------------------------------------------------------------------
      1         17           0        0.000000    0.000000    0.071553
      2          1           0        0.000000    0.000000   -1.216393
 ---------------------------------------------------------------------
 Rotational constants (GHZ):      0.0000000    311.0117797    311.0117797
 Standard basis: Aug-CC-pVDZ (5D, 7F)
 There are    18 symmetry adapted basis functions of A1  symmetry.
 There are     2 symmetry adapted basis functions of A2  symmetry.
 There are     8 symmetry adapted basis functions of B1  symmetry.
 There are     8 symmetry adapted basis functions of B2  symmetry.
 Integral buffers will be    262144 words long.
 Raffenetti 1 integral format.
 Two-electron integral symmetry is turned on.
    36 basis functions,    92 primitive gaussians,    38 cartesian basis functions
     9 alpha electrons        9 beta electrons
       nuclear repulsion energy         6.9847780286 Hartrees.
 NAtoms=    2 NActive=    2 NUniq=    2 SFac= 7.50D-01 NAtFMM=   80 NAOKFM=F Big=F
 One-electron integrals computed using PRISM.
 NBasis=    36 RedAO= T  NBF=    18     2     8     8
 NBsUse=    36 1.00D-06 NBFU=    18     2     8     8
 Initial guess read from the read-write file.
 B after Tr=     0.000000    0.000000    0.000000
         Rot=    1.000000    0.000000    0.000000    0.000000 Ang=   0.00 deg.
 Initial guess orbital symmetries:
       Occupied  (SG) (SG) (SG) (PI) (PI) (SG) (SG) (PI) (PI)
       Virtual   (SG) (SG) (PI) (PI) (SG) (SG) (PI) (PI) (DLTA)
                 (DLTA) (SG) (SG) (PI) (PI) (SG) (PI) (PI) (SG)
                 (DLTA) (DLTA) (PI) (PI) (SG) (SG) (PI) (PI) (SG)
 Requested convergence on RMS density matrix=1.00D-08 within  64 cycles.
 Requested convergence on MAX density matrix=1.00D-06.
 Requested convergence on             energy=1.00D-06.
 No special actions if energy rises.
 Keep R1 ints in memory in canonical form, NReq=1105274.
 SCF Done:  E(RHF) =  -460.092545840     A.U. after    6 cycles
             Convg  =    0.6233D-08             -V/T =  2.0001
 QCSCF skips out because SCF is already converged.
 ExpMin= 2.97D-02 ExpMax= 1.28D+05 ExpMxC= 1.24D+03 IAcc=3 IRadAn=         5 AccDes= 0.00D+00
 HarFok:  IExCor=  205 AccDes= 0.00D+00 IRadAn=         5 IDoV=-2
 ScaDFX=  1.000000  1.000000  1.000000  1.000000
 Range of M.O.s used for correlation:     6    36
 NBasis=    36 NAE=     9 NBE=     9 NFC=     5 NFV=     0
 NROrb=     31 NOA=     4 NOB=     4 NVA=    27 NVB=    27
 Fully direct method using O(ONN) memory.
 JobTyp=1 Pass  1:  I=   6 to   9 NPSUse=  1 ParTrn=F ParDer=F DoDerP=T.
 Spin components of T(2) and E(2):
     alpha-alpha T2 =       0.8173134124D-02 E2=     -0.1997414902D-01
     alpha-beta  T2 =       0.4622136740D-01 E2=     -0.1193286919D+00
     beta-beta   T2 =       0.8173134124D-02 E2=     -0.1997414902D-01
 ANorm=    0.1030809214D+01
 E2 =    -0.1592769899D+00 EUMP2 =    -0.46025182283022D+03
          IDoAtm=11
          Differentiating once with respect to electric field.
                with respect to dipole field.
          Differentiating once with respect to nuclear coordinates.
          Keep R1 ints in memory in canonical form, NReq=1095304.
          There are     1 degrees of freedom in the 1st order CPHF.  IDoFFX=0.
 LinEq1:  Iter=  0 NonCon=     1 RMS=3.72D-03 Max=2.12D-02
 AX will form     1 AO Fock derivatives at one time.
 LinEq1:  Iter=  1 NonCon=     1 RMS=6.19D-04 Max=6.37D-03
 LinEq1:  Iter=  2 NonCon=     1 RMS=1.58D-04 Max=9.04D-04
 LinEq1:  Iter=  3 NonCon=     1 RMS=2.46D-05 Max=1.46D-04
 LinEq1:  Iter=  4 NonCon=     1 RMS=3.72D-06 Max=2.18D-05
 LinEq1:  Iter=  5 NonCon=     1 RMS=6.98D-07 Max=4.57D-06
 LinEq1:  Iter=  6 NonCon=     1 RMS=6.88D-08 Max=3.76D-07
 LinEq1:  Iter=  7 NonCon=     1 RMS=4.32D-09 Max=2.95D-08
 LinEq1:  Iter=  8 NonCon=     1 RMS=3.38D-10 Max=2.00D-09
 LinEq1:  Iter=  9 NonCon=     0 RMS=2.89D-11 Max=2.31D-10
 Linear equations converged to 1.000D-10 1.000D-09 after     9 iterations.
 End of Minotr Frequency-dependent properties file   721 does not exist.
 End of Minotr Frequency-dependent properties file   722 does not exist.
 Calling FoFJK, ICntrl=      2127 FMM=F ISym2X=1 I1Cent= 0 IOpClX= 0 NMat=1 NMatS=1 NMatT=0.
 ***** Axes restored to original set *****
 -------------------------------------------------------------------
 Center     Atomic                   Forces (Hartrees/Bohr)
 Number     Number              X              Y              Z
 -------------------------------------------------------------------
      1       17           0.000000000    0.000000000    0.000000021
      2        1           0.000000000    0.000000000   -0.000000021
 -------------------------------------------------------------------
 Cartesian Forces:  Max     0.000000021 RMS     0.000000012

 GradGradGradGradGradGradGradGradGradGradGradGradGradGradGradGradGradGrad
 Berny optimization.
 Using GEDIIS/GDIIS optimizer.
 Internal  Forces:  Max     0.000000021 RMS     0.000000021
 Search for a local minimum.
 Step number   3 out of a maximum of   20
 All quantities printed in internal units (Hartrees-Bohrs-Radians)
 Mixed Optimization -- En-DIIS/RFO-DIIS
 Swaping is turned off.
 Update second derivatives using D2CorX and points    2    3
 DE= -2.82D-07 DEPred=-2.77D-07 R= 1.02D+00
 Trust test= 1.02D+00 RLast= 1.29D-03 DXMaxT set to 3.00D-01
 The second derivative matrix:
                          R1
           R1           0.33816
     Eigenvalues ---    0.33816
 En-DIIS/RFO-DIIS IScMMF=        0 using points:     3    2
 RFO step:  Lambda=-7.21644966D-16.
 Iteration  1 RMS(Cart)=  0.00000004 RMS(Int)=  0.00000000
 ClnCor:  largest displacement from symmetrization is 0.00D+00 for atom     0.
 Variable       Old X    -DE/DX   Delta X   Delta X   Delta X     New X
                                  (DIIS)     (GDIIS)  (Total)
    R1        2.43386   0.00000   0.00000   0.00000   0.00000   2.43386
         Item               Value     Threshold  Converged?
 Maximum Force            0.000000     0.000450     YES
 RMS     Force            0.000000     0.000300     YES
 Maximum Displacement     0.000000     0.001800     YES
 RMS     Displacement     0.000000     0.001200     YES
 Predicted change in Energy=-6.436064D-16
 Optimization completed.
    -- Stationary point found.
                           ----------------------------
                           !   Optimized Parameters   !
                           ! (Angstroms and Degrees)  !
 --------------------------                            --------------------------
 ! Name  Definition              Value          Derivative Info.                !
 --------------------------------------------------------------------------------
 ! R1    R(1,2)                  1.2879         -DE/DX =    0.0                 !
 --------------------------------------------------------------------------------
 GradGradGradGradGradGradGradGradGradGradGradGradGradGradGradGradGradGrad

                          Input orientation:                          
 ---------------------------------------------------------------------
 Center     Atomic      Atomic             Coordinates (Angstroms)
 Number     Number       Type             X           Y           Z
 ---------------------------------------------------------------------
      1         17           0        0.000000    0.000000    0.065287
      2          1           0        0.000000    0.000000   -1.222658
 ---------------------------------------------------------------------
 Stoichiometry    ClH
 Framework group  C*V[C*(HCl)]
 Deg. of freedom     1
 Full point group                 C*V     NOp   4
 Largest Abelian subgroup         C2V     NOp   4
 Largest concise Abelian subgroup C1      NOp   1
                         Standard orientation:                         
 ---------------------------------------------------------------------
 Center     Atomic      Atomic             Coordinates (Angstroms)
 Number     Number       Type             X           Y           Z
 ---------------------------------------------------------------------
      1         17           0        0.000000    0.000000    0.071553
      2          1           0        0.000000    0.000000   -1.216393
 ---------------------------------------------------------------------
 Rotational constants (GHZ):      0.0000000    311.0117797    311.0117797

 **********************************************************************

            Population analysis using the SCF density.

 **********************************************************************

 Orbital symmetries:
       Occupied  (SG) (SG) (SG) (PI) (PI) (SG) (SG) (PI) (PI)
       Virtual   (SG) (SG) (PI) (PI) (SG) (SG) (PI) (PI) (DLTA)
                 (DLTA) (SG) (SG) (PI) (PI) (SG) (PI) (PI) (SG)
                 (DLTA) (DLTA) (PI) (PI) (SG) (SG) (PI) (PI) (SG)
 The electronic state is 1-SG.
 Alpha  occ. eigenvalues -- -104.85147 -10.57701  -8.04491  -8.04142  -8.04142
 Alpha  occ. eigenvalues --   -1.11731  -0.62387  -0.47710  -0.47710
 Alpha virt. eigenvalues --    0.03496   0.12606   0.13822   0.13822   0.17905
 Alpha virt. eigenvalues --    0.21458   0.31897   0.31897   0.47150   0.47150
 Alpha virt. eigenvalues --    0.49137   0.57521   0.60768   0.60768   0.89264
 Alpha virt. eigenvalues --    0.92345   0.92345   1.03186   1.38603   1.38603
 Alpha virt. eigenvalues --    1.38669   1.38669   1.44848   1.78217   1.85501
 Alpha virt. eigenvalues --    1.85501   2.41651
          Condensed to atoms (all electrons):
              1          2
     1  Cl  16.808735   0.328359
     2  H    0.328359   0.534547
 Mulliken atomic charges:
              1
     1  Cl  -0.137094
     2  H    0.137094
 Sum of Mulliken atomic charges =   0.00000
 Mulliken charges with hydrogens summed into heavy atoms:
              1
     1  Cl   0.000000
 Sum of Mulliken charges with hydrogens summed into heavy atoms =   0.00000
 Electronic spatial extent (au):  <R**2>=             34.3335
 Charge=              0.0000 electrons
 Dipole moment (field-independent basis, Debye):
    X=              0.0000    Y=              0.0000    Z=             -1.2557  Tot=              1.2557
 Quadrupole moment (field-independent basis, Debye-Ang):
   XX=            -14.1672   YY=            -14.1672   ZZ=            -10.3205
   XY=              0.0000   XZ=              0.0000   YZ=              0.0000
 Traceless Quadrupole moment (field-independent basis, Debye-Ang):
   XX=             -1.2822   YY=             -1.2822   ZZ=              2.5645
   XY=              0.0000   XZ=              0.0000   YZ=              0.0000
 Octapole moment (field-independent basis, Debye-Ang**2):
  XXX=              0.0000  YYY=              0.0000  ZZZ=             -2.7539  XYY=              0.0000
  XXY=              0.0000  XXZ=             -0.1336  XZZ=              0.0000  YZZ=              0.0000
  YYZ=             -0.1336  XYZ=              0.0000
 Hexadecapole moment (field-independent basis, Debye-Ang**3):
 XXXX=            -16.6356 YYYY=            -16.6356 ZZZZ=            -13.7159 XXXY=              0.0000
 XXXZ=              0.0000 YYYX=              0.0000 YYYZ=              0.0000 ZZZX=              0.0000
 ZZZY=              0.0000 XXYY=             -5.5452 XXZZ=             -5.8587 YYZZ=             -5.8587
 XXYZ=              0.0000 YYXZ=              0.0000 ZZXY=              0.0000
 N-N= 6.984778028626D+00 E-N=-1.109702572396D+03  KE= 4.600511701175D+02
 Symmetry A1   KE= 3.685728998500D+02
 Symmetry A2   KE= 4.127385582098D-51
 Symmetry B1   KE= 4.573913513374D+01
 Symmetry B2   KE= 4.573913513374D+01
 1|1|UNPC-LAPTOP-CFEPOVL3|FOpt|RMP2-FC|Aug-CC-pVDZ|Cl1H1|VALTER CARVALH
 O|08-Aug-2016|0||# opt freq=noraman MP2/aug-cc-pvdz scf=xqc||Title Car
 d Required||0,1|Cl,0.,0.,0.0652871867|H,0.,0.,-1.2226581867||Version=I
 A32W-G09RevA.02|State=1-SG|HF=-460.0925458|MP2=-460.2518228|RMSD=6.233
 e-009|RMSF=1.205e-008|Dipole=0.,0.,-0.4660728|PG=C*V [C*(H1Cl1)]||@


 Sacred cows make the best hamburger.
                               -- Mark Twain
 Job cpu time:  0 days  0 hours  0 minutes 24.0 seconds.
 File lengths (MBytes):  RWF=      5 Int=      0 D2E=      0 Chk=      1 Scr=      1
 Normal termination of Gaussian 09 at Mon Aug 08 16:59:50 2016.
 Link1:  Proceeding to internal job step number  2.
 ----------------------------------------------------------------------
 #N Geom=AllCheck Guess=TCheck SCRF=Check GenChk RMP2(FC)/Aug-CC-pVDZ F
 req
 ----------------------------------------------------------------------
 1/10=4,29=7,30=1,38=1,40=1/1,3;
 2/12=2,40=1/2;
 3/5=16,7=10,11=1,14=-4,16=1,25=1,30=1,70=2,71=2,116=1/1,2,3;
 4/5=101/1;
 5/5=2,8=3,13=1,98=1/2,8;
 8/6=3,8=1,10=1,19=11,30=-1/1;
 9/15=3,16=-3/6;
 11/6=1,8=1,15=11,17=12,24=-1,27=1,28=-2,29=300,32=6,42=3/1,2,10;
 10/6=2,21=1/2;
 8/6=4,8=1,10=1,19=11,30=-1/11,4;
 10/5=1,20=4/2;
 11/12=2,14=11,16=1,17=2,28=-2,42=3/2,10,12;
 6/7=2,8=2,9=2,10=2/1;
 7/8=1,10=1,12=2,25=1,44=2/1,2,3,16;
 1/10=4,30=1/3;
 99//99;
 -------------------
 Title Card Required
 -------------------
 Redundant internal coordinates taken from checkpoint file:
 HCl.chk
 Charge =  0 Multiplicity = 1
 Cl,0,0.,0.,0.0652871867
 H,0,0.,0.,-1.2226581867
 Recover connectivity data from disk.

 GradGradGradGradGradGradGradGradGradGradGradGradGradGradGradGradGradGrad
 Berny optimization.
 Initialization pass.
                           ----------------------------
                           !    Initial Parameters    !
                           ! (Angstroms and Degrees)  !
 --------------------------                            --------------------------
 ! Name  Definition              Value          Derivative Info.                !
 --------------------------------------------------------------------------------
 ! R1    R(1,2)                  1.2879         calculate D2E/DX2 analytically  !
 --------------------------------------------------------------------------------
 Trust Radius=3.00D-01 FncErr=1.00D-07 GrdErr=1.00D-07
 Number of steps in this run=   2 maximum allowed number of steps=   2.
 GradGradGradGradGradGradGradGradGradGradGradGradGradGradGradGradGradGrad

                          Input orientation:                          
 ---------------------------------------------------------------------
 Center     Atomic      Atomic             Coordinates (Angstroms)
 Number     Number       Type             X           Y           Z
 ---------------------------------------------------------------------
      1         17           0        0.000000    0.000000    0.065287
      2          1           0        0.000000    0.000000   -1.222658
 ---------------------------------------------------------------------
 Stoichiometry    ClH
 Framework group  C*V[C*(HCl)]
 Deg. of freedom     1
 Full point group                 C*V     NOp   4
 Largest Abelian subgroup         C2V     NOp   4
 Largest concise Abelian subgroup C1      NOp   1
                         Standard orientation:                         
 ---------------------------------------------------------------------
 Center     Atomic      Atomic             Coordinates (Angstroms)
 Number     Number       Type             X           Y           Z
 ---------------------------------------------------------------------
      1         17           0        0.000000    0.000000    0.071553
      2          1           0        0.000000    0.000000   -1.216393
 ---------------------------------------------------------------------
 Rotational constants (GHZ):      0.0000000    311.0117797    311.0117797
 Standard basis: Aug-CC-pVDZ (5D, 7F)
 There are    18 symmetry adapted basis functions of A1  symmetry.
 There are     2 symmetry adapted basis functions of A2  symmetry.
 There are     8 symmetry adapted basis functions of B1  symmetry.
 There are     8 symmetry adapted basis functions of B2  symmetry.
 Integral buffers will be    262144 words long.
 Raffenetti 1 integral format.
 Two-electron integral symmetry is turned on.
    36 basis functions,    92 primitive gaussians,    38 cartesian basis functions
     9 alpha electrons        9 beta electrons
       nuclear repulsion energy         6.9847780286 Hartrees.
 NAtoms=    2 NActive=    2 NUniq=    2 SFac= 7.50D-01 NAtFMM=   80 NAOKFM=F Big=F
 One-electron integrals computed using PRISM.
 NBasis=    36 RedAO= T  NBF=    18     2     8     8
 NBsUse=    36 1.00D-06 NBFU=    18     2     8     8
 Initial guess read from the checkpoint file:  HCl.chk
 B after Tr=     0.000000    0.000000    0.000000
         Rot=    1.000000    0.000000    0.000000    0.000000 Ang=   0.00 deg.
 Initial guess orbital symmetries:
       Occupied  (SG) (SG) (SG) (PI) (PI) (SG) (SG) (PI) (PI)
       Virtual   (SG) (SG) (PI) (PI) (SG) (SG) (PI) (PI) (DLTA)
                 (DLTA) (SG) (SG) (PI) (PI) (SG) (PI) (PI) (SG)
                 (DLTA) (DLTA) (PI) (PI) (SG) (SG) (PI) (PI) (SG)
 Requested convergence on RMS density matrix=1.00D-08 within  64 cycles.
 Requested convergence on MAX density matrix=1.00D-06.
 Requested convergence on             energy=1.00D-06.
 No special actions if energy rises.
 Keep R1 ints in memory in canonical form, NReq=1105274.
 SCF Done:  E(RHF) =  -460.092545840     A.U. after    1 cycles
             Convg  =    0.8117D-09             -V/T =  2.0001
 QCSCF skips out because SCF is already converged.
 ExpMin= 2.97D-02 ExpMax= 1.28D+05 ExpMxC= 1.24D+03 IAcc=3 IRadAn=         5 AccDes= 0.00D+00
 HarFok:  IExCor=  205 AccDes= 0.00D+00 IRadAn=         5 IDoV=-2
 ScaDFX=  1.000000  1.000000  1.000000  1.000000
 Range of M.O.s used for correlation:     6    36
 NBasis=    36 NAE=     9 NBE=     9 NFC=     5 NFV=     0
 NROrb=     31 NOA=     4 NOB=     4 NVA=    27 NVB=    27
 Disk-based method using ON**2 memory for  4 occupieds at a time.
 Permanent disk used for amplitudes=       71685 words.
 Estimated scratch disk usage=     1259516 words.
 Actual    scratch disk usage=     1259516 words.
 JobTyp=1 Pass  1:  I=   6 to   9 NPSUse=  1 ParTrn=F ParDer=F DoDerP=T.
 (rs|ai) integrals will be sorted in core.
 Spin components of T(2) and E(2):
     alpha-alpha T2 =       0.8173134254D-02 E2=     -0.1997414924D-01
     alpha-beta  T2 =       0.4622136780D-01 E2=     -0.1193286923D+00
     beta-beta   T2 =       0.8173134254D-02 E2=     -0.1997414924D-01
 ANorm=    0.1030809214D+01
 E2 =    -0.1592769908D+00 EUMP2 =    -0.46025182283114D+03
 G2DrvN: will do     3 centers at a time, making    1 passes doing MaxLOS=2.
 Calling FoFCou, ICntrl=  3107 FMM=F I1Cent=   0 AccDes= 0.00D+00.
 FoFDir/FoFCou used for L=0 through L=2.
 End of G2Drv Frequency-dependent properties file   721 does not exist.
 End of G2Drv Frequency-dependent properties file   722 does not exist.
          IDoAtm=11
          Differentiating once with respect to electric field.
                with respect to dipole field.
          Differentiating once with respect to nuclear coordinates.
          Keep R1 ints in memory in canonical form, NReq=1095304.
          There are     9 degrees of freedom in the 1st order CPHF.  IDoFFX=5.
      6 vectors produced by pass  0 Test12= 2.70D-15 1.11D-08 XBig12= 5.24D+00 1.38D+00.
 AX will form     6 AO Fock derivatives at one time.
      6 vectors produced by pass  1 Test12= 2.70D-15 1.11D-08 XBig12= 2.07D-01 2.05D-01.
      6 vectors produced by pass  2 Test12= 2.70D-15 1.11D-08 XBig12= 3.62D-03 2.43D-02.
      6 vectors produced by pass  3 Test12= 2.70D-15 1.11D-08 XBig12= 4.74D-05 2.37D-03.
      6 vectors produced by pass  4 Test12= 2.70D-15 1.11D-08 XBig12= 3.64D-07 2.61D-04.
      6 vectors produced by pass  5 Test12= 2.70D-15 1.11D-08 XBig12= 3.69D-09 2.00D-05.
      6 vectors produced by pass  6 Test12= 2.70D-15 1.11D-08 XBig12= 1.57D-11 1.33D-06.
      3 vectors produced by pass  7 Test12= 2.70D-15 1.11D-08 XBig12= 6.13D-14 8.70D-08.
 Inverted reduced A of dimension    45 with in-core refinement.
 End of Minotr Frequency-dependent properties file   721 does not exist.
 End of Minotr Frequency-dependent properties file   722 does not exist.
 MDV=   104857600.
 Form MO integral derivatives with frozen-active canonical formalism.
 Discarding MO integrals.
 Reordered first order wavefunction length =       118098
 In DefCFB: NBatch=  1 ICI=  9 ICA= 27 LFMax= 27
            Large arrays: LIAPS=     1329696 LIARS=     1874502 words.
 Semi-Direct transformation.
 ModeAB=           2 MOrb=             9 LenV=     104678344
 LASXX=       166392 LTotXX=      166392 LenRXX=      166392
 LTotAB=      180873 MaxLAS=      240084 LenRXY=      240084
 NonZer=      332784 LenScr=     1048064 LnRSAI=           0
 LnScr1=           0 LExtra=           0 Total=      1454540
 MaxDsk=          -1 SrtSym=           F ITran=            4
 JobTyp=0 Pass  1:  I=   1 to   9.
 (rs|ai) integrals will be sorted in core.
 Spin components of T(2) and E(2):
     alpha-alpha T2 =       0.8173134254D-02 E2=     -0.1997414924D-01
     alpha-beta  T2 =       0.4622136780D-01 E2=     -0.1193286923D+00
     beta-beta   T2 =       0.8173134254D-02 E2=     -0.1997414924D-01
 ANorm=    0.1457784371D+01
 E2 =    -0.1592769908D+00 EUMP2 =    -0.46025182283114D+03
          IDoAtm=11
          Differentiating once with respect to electric field.
                with respect to dipole field.
          Differentiating once with respect to nuclear coordinates.
          There are     1 degrees of freedom in the 1st order CPHF.  IDoFFX=0.
 LinEq1:  Iter=  0 NonCon=     1 RMS=3.72D-03 Max=2.12D-02
 LinEq1:  Iter=  1 NonCon=     1 RMS=6.19D-04 Max=6.37D-03
 LinEq1:  Iter=  2 NonCon=     1 RMS=1.58D-04 Max=9.04D-04
 LinEq1:  Iter=  3 NonCon=     1 RMS=2.46D-05 Max=1.46D-04
 LinEq1:  Iter=  4 NonCon=     1 RMS=3.72D-06 Max=2.18D-05
 LinEq1:  Iter=  5 NonCon=     1 RMS=6.98D-07 Max=4.57D-06
 LinEq1:  Iter=  6 NonCon=     1 RMS=6.88D-08 Max=3.76D-07
 LinEq1:  Iter=  7 NonCon=     1 RMS=4.32D-09 Max=2.95D-08
 LinEq1:  Iter=  8 NonCon=     1 RMS=3.38D-10 Max=2.00D-09
 LinEq1:  Iter=  9 NonCon=     0 RMS=2.89D-11 Max=2.31D-10
 Linear equations converged to 1.000D-10 1.000D-09 after     9 iterations.
 End of Minotr Frequency-dependent properties file   721 does not exist.
 End of Minotr Frequency-dependent properties file   722 does not exist.
 Symmetrizing basis deriv contribution to polar:
 IMax=3 JMax=2 DiffMx= 0.00D+00
 G2DrvN: will do     3 centers at a time, making    1 passes doing MaxLOS=2.
 Calling FoFCou, ICntrl=  3107 FMM=F I1Cent=   0 AccDes= 0.00D+00.
 FoFDir/FoFCou used for L=0 through L=2.
 End of G2Drv Frequency-dependent properties file   721 does not exist.
 End of G2Drv Frequency-dependent properties file   722 does not exist.
 R2 and R3 integrals will be kept in memory, NReq=     1369822.
 DD1Dir will call FoFMem   1 times, MxPair=        90
 NAB=    45 NAA=     0 NBB=     0.
 Discarding MO integrals.

 **********************************************************************

            Population analysis using the SCF density.

 **********************************************************************

 Orbital symmetries:
       Occupied  (SG) (SG) (SG) (PI) (PI) (SG) (SG) (PI) (PI)
       Virtual   (SG) (SG) (PI) (PI) (SG) (SG) (PI) (PI) (DLTA)
                 (DLTA) (SG) (SG) (PI) (PI) (SG) (PI) (PI) (SG)
                 (DLTA) (DLTA) (PI) (PI) (SG) (SG) (PI) (PI) (SG)
 The electronic state is 1-SG.
 Alpha  occ. eigenvalues -- -104.85147 -10.57701  -8.04491  -8.04142  -8.04142
 Alpha  occ. eigenvalues --   -1.11731  -0.62387  -0.47710  -0.47710
 Alpha virt. eigenvalues --    0.03496   0.12606   0.13822   0.13822   0.17905
 Alpha virt. eigenvalues --    0.21458   0.31897   0.31897   0.47150   0.47150
 Alpha virt. eigenvalues --    0.49137   0.57521   0.60768   0.60768   0.89264
 Alpha virt. eigenvalues --    0.92345   0.92345   1.03186   1.38603   1.38603
 Alpha virt. eigenvalues --    1.38669   1.38669   1.44848   1.78217   1.85501
 Alpha virt. eigenvalues --    1.85501   2.41651
          Condensed to atoms (all electrons):
              1          2
     1  Cl  16.808735   0.328359
     2  H    0.328359   0.534547
 Mulliken atomic charges:
              1
     1  Cl  -0.137094
     2  H    0.137094
 Sum of Mulliken atomic charges =   0.00000
 Mulliken charges with hydrogens summed into heavy atoms:
              1
     1  Cl   0.000000
 Sum of Mulliken charges with hydrogens summed into heavy atoms =   0.00000
 APT atomic charges:
              1
     1  Cl  -0.196711
     2  H    0.196711
 Sum of APT charges=   0.00000
 APT Atomic charges with hydrogens summed into heavy atoms:
              1
     1  Cl   0.000000
     2  H    0.000000
 Sum of APT charges=   0.00000
 Electronic spatial extent (au):  <R**2>=             34.3335
 Charge=              0.0000 electrons
 Dipole moment (field-independent basis, Debye):
    X=              0.0000    Y=              0.0000    Z=             -1.2557  Tot=              1.2557
 Quadrupole moment (field-independent basis, Debye-Ang):
   XX=            -14.1672   YY=            -14.1672   ZZ=            -10.3205
   XY=              0.0000   XZ=              0.0000   YZ=              0.0000
 Traceless Quadrupole moment (field-independent basis, Debye-Ang):
   XX=             -1.2822   YY=             -1.2822   ZZ=              2.5645
   XY=              0.0000   XZ=              0.0000   YZ=              0.0000
 Octapole moment (field-independent basis, Debye-Ang**2):
  XXX=              0.0000  YYY=              0.0000  ZZZ=             -2.7539  XYY=              0.0000
  XXY=              0.0000  XXZ=             -0.1336  XZZ=              0.0000  YZZ=              0.0000
  YYZ=             -0.1336  XYZ=              0.0000
 Hexadecapole moment (field-independent basis, Debye-Ang**3):
 XXXX=            -16.6356 YYYY=            -16.6356 ZZZZ=            -13.7159 XXXY=              0.0000
 XXXZ=              0.0000 YYYX=              0.0000 YYYZ=              0.0000 ZZZX=              0.0000
 ZZZY=              0.0000 XXYY=             -5.5452 XXZZ=             -5.8587 YYZZ=             -5.8587
 XXYZ=              0.0000 YYXZ=              0.0000 ZZXY=              0.0000
 N-N= 6.984778028626D+00 E-N=-1.109702572346D+03  KE= 4.600511700985D+02
 Symmetry A1   KE= 3.685728999317D+02
 Symmetry A2   KE= 4.127385582098D-51
 Symmetry B1   KE= 4.573913508339D+01
 Symmetry B2   KE= 4.573913508339D+01
  Exact polarizability:  15.201   0.000  15.201   0.000   0.000  17.680
 Approx polarizability:  13.729   0.000  13.729   0.000   0.000  17.320
 Calling FoFJK, ICntrl=    100127 FMM=F ISym2X=1 I1Cent= 0 IOpClX= 0 NMat=1 NMatS=1 NMatT=0.
 Full mass-weighted force constant matrix:
 Low frequencies ---   -0.4580   -0.4580    0.0041    0.0041    0.0057 3023.0766
 Diagonal vibrational polarizability:
        0.0000000       0.0000000       0.1257426
 Harmonic frequencies (cm**-1), IR intensities (KM/Mole), Raman scattering
 activities (A**4/AMU), depolarization ratios for plane and unpolarized
 incident light, reduced masses (AMU), force constants (mDyne/A),
 and normal coordinates:
                     1
                    SG
 Frequencies --  3023.0766
 Red. masses --     1.0360
 Frc consts  --     5.5784
 IR Inten    --    42.7019
  Atom  AN      X      Y      Z
     1  17     0.00   0.00   0.03
     2   1     0.00   0.00  -1.00

 -------------------
 - Thermochemistry -
 -------------------
 Temperature   298.150 Kelvin.  Pressure   1.00000 Atm.
 Atom     1 has atomic number 17 and mass  34.96885
 Atom     2 has atomic number  1 and mass   1.00783
 Molecular mass:    35.97668 amu.
 Principal axes and moments of inertia in atomic units:
                           1         2         3
     Eigenvalues --     0.00000   5.80281   5.80281
           X            0.00000   0.00000   1.00000
           Y            0.00000   1.00000   0.00000
           Z            1.00000   0.00000   0.00000
 This molecule is a prolate symmetric top.
 Rotational symmetry number  1.
 Rotational temperature (Kelvin)     14.92619
 Rotational constant (GHZ):         311.011780
 Zero-point vibrational energy      18082.0 (Joules/Mol)
                                    4.32170 (Kcal/Mol)
 Vibrational temperatures:   4349.53
          (Kelvin)
 
 Zero-point correction=                           0.006887 (Hartree/Particle)
 Thermal correction to Energy=                    0.009248
 Thermal correction to Enthalpy=                  0.010192
 Thermal correction to Gibbs Free Energy=        -0.011003
 Sum of electronic and zero-point Energies=           -460.244936
 Sum of electronic and thermal Energies=              -460.242575
 Sum of electronic and thermal Enthalpies=            -460.241631
 Sum of electronic and thermal Free Energies=         -460.262826
 
                     E (Thermal)             CV                S
                      KCal/Mol        Cal/Mol-Kelvin    Cal/Mol-Kelvin
 Total                    5.803              4.968             44.609
 Electronic               0.000              0.000              0.000
 Translational            0.889              2.981             36.671
 Rotational               0.592              1.987              7.938
 Vibrational              4.322              0.000              0.000
                       Q            Log10(Q)             Ln(Q)
 Total Bot       0.115118D+06          5.061145         11.653717
 Total V=0       0.169423D+09          8.228973         18.947910
 Vib (Bot)       0.679473D-03         -3.167828         -7.294193
 Vib (V=0)       0.100000D+01          0.000000          0.000000
 Electronic      0.100000D+01          0.000000          0.000000
 Translational   0.848178D+07          6.928487         15.953430
 Rotational      0.199750D+02          1.300486          2.994479
 ***** Axes restored to original set *****
 -------------------------------------------------------------------
 Center     Atomic                   Forces (Hartrees/Bohr)
 Number     Number              X              Y              Z
 -------------------------------------------------------------------
      1       17           0.000000000    0.000000000    0.000000022
      2        1           0.000000000    0.000000000   -0.000000022
 -------------------------------------------------------------------
 Cartesian Forces:  Max     0.000000022 RMS     0.000000013

 GradGradGradGradGradGradGradGradGradGradGradGradGradGradGradGradGradGrad
 Berny optimization.
 Internal  Forces:  Max     0.000000022 RMS     0.000000022
 Search for a local minimum.
 Step number   1 out of a maximum of    2
 All quantities printed in internal units (Hartrees-Bohrs-Radians)
 Second derivative matrix not updated -- analytic derivatives used.
 The second derivative matrix:
                          R1
           R1           0.33879
     Eigenvalues ---    0.33879
 Angle between quadratic step and forces=  90.00 degrees.
 Linear search not attempted -- first point.
 Iteration  1 RMS(Cart)=  0.00000005 RMS(Int)=  0.00000000
 ClnCor:  largest displacement from symmetrization is 0.00D+00 for atom     0.
 Variable       Old X    -DE/DX   Delta X   Delta X   Delta X     New X
                                 (Linear)    (Quad)   (Total)
    R1        2.43386   0.00000   0.00000   0.00000   0.00000   2.43386
         Item               Value     Threshold  Converged?
 Maximum Force            0.000000     0.000450     YES
 RMS     Force            0.000000     0.000300     YES
 Maximum Displacement     0.000000     0.001800     YES
 RMS     Displacement     0.000000     0.001200     YES
 Predicted change in Energy=-7.050509D-16
 Optimization completed.
    -- Stationary point found.
                           ----------------------------
                           !   Optimized Parameters   !
                           ! (Angstroms and Degrees)  !
 --------------------------                            --------------------------
 ! Name  Definition              Value          Derivative Info.                !
 --------------------------------------------------------------------------------
 ! R1    R(1,2)                  1.2879         -DE/DX =    0.0                 !
 --------------------------------------------------------------------------------
 GradGradGradGradGradGradGradGradGradGradGradGradGradGradGradGradGradGrad

 1|1|UNPC-LAPTOP-CFEPOVL3|Freq|RMP2-FC|Aug-CC-pVDZ|Cl1H1|VALTER CARVALH
 O|08-Aug-2016|0||#N Geom=AllCheck Guess=TCheck SCRF=Check GenChk RMP2(
 FC)/Aug-CC-pVDZ Freq||Title Card Required||0,1|Cl,0.,0.,0.0652871867|H
 ,0.,0.,-1.2226581867||Version=IA32W-G09RevA.02|State=1-SG|HF=-460.0925
 458|MP2=-460.2518228|RMSD=8.117e-010|RMSF=1.262e-008|ZeroPoint=0.00688
 71|Thermal=0.0092475|Dipole=0.,0.,-0.4660728|DipoleDeriv=-0.191495,0.,
 0.,0.,-0.191495,0.,0.,0.,-0.2071433,0.191495,0.,0.,0.,0.191495,0.,0.,0
 .,0.2071433|Polar=15.2014621,0.,15.2014621,0.,0.,17.6801605|PG=C*V [C*
 (H1Cl1)]|NImag=0||0.,0.,0.,0.,0.,0.33879361,0.,0.,0.,0.,0.,0.,0.,0.,0.
 ,0.,0.,-0.33879361,0.,0.,0.33879361||0.,0.,-0.00000002,0.,0.,0.0000000
 2|||@


 Sacred cows make the best hamburger.
                               -- Mark Twain
 Job cpu time:  0 days  0 hours  0 minutes 17.0 seconds.
 File lengths (MBytes):  RWF=     33 Int=      0 D2E=      0 Chk=      1 Scr=      1
 Normal termination of Gaussian 09 at Mon Aug 08 17:00:08 2016.
