 Entering Gaussian System, Link 0=g09
 Initial command:
 /public/software/g09/l1.exe /tmp/Gau-26162.inp -scrdir=/tmp/
 Entering Link 1 = /public/software/g09/l1.exe PID=     26163.
  
 Copyright (c) 1988,1990,1992,1993,1995,1998,2003,2009, Gaussian, Inc.
                  All Rights Reserved.
  
 This is part of the Gaussian(R) 09 program.  It is based on
 the Gaussian(R) 03 system (copyright 2003, Gaussian, Inc.),
 the Gaussian(R) 98 system (copyright 1998, Gaussian, Inc.),
 the Gaussian(R) 94 system (copyright 1995, Gaussian, Inc.),
 the Gaussian 92(TM) system (copyright 1992, Gaussian, Inc.),
 the Gaussian 90(TM) system (copyright 1990, Gaussian, Inc.),
 the Gaussian 88(TM) system (copyright 1988, Gaussian, Inc.),
 the Gaussian 86(TM) system (copyright 1986, Carnegie Mellon
 University), and the Gaussian 82(TM) system (copyright 1983,
 Carnegie Mellon University). Gaussian is a federally registered
 trademark of Gaussian, Inc.
  
 This software contains proprietary and confidential information,
 including trade secrets, belonging to Gaussian, Inc.
  
 This software is provided under written license and may be
 used, copied, transmitted, or stored only in accord with that
 written license.
  
 The following legend is applicable only to US Government
 contracts under FAR:
  
                    RESTRICTED RIGHTS LEGEND
  
 Use, reproduction and disclosure by the US Government is
 subject to restrictions as set forth in subparagraphs (a)
 and (c) of the Commercial Computer Software - Restricted
 Rights clause in FAR 52.227-19.
  
 Gaussian, Inc.
 340 Quinnipiac St., Bldg. 40, Wallingford CT 06492
  
  
 ---------------------------------------------------------------
 Warning -- This program may not be used in any manner that
 competes with the business of Gaussian, Inc. or will provide
 assistance to any competitor of Gaussian, Inc.  The licensee
 of this program is prohibited from giving any competitor of
 Gaussian, Inc. access to this program.  By using this program,
 the user acknowledges that Gaussian, Inc. is engaged in the
 business of creating and licensing software in the field of
 computational chemistry and represents and warrants to the
 licensee that it is not a competitor of Gaussian, Inc. and that
 it will not use this program in any manner prohibited above.
 ---------------------------------------------------------------
  

 Cite this work as:
 Gaussian 09, Revision A.02,
 M. J. Frisch, G. W. Trucks, H. B. Schlegel, G. E. Scuseria, 
 M. A. Robb, J. R. Cheeseman, G. Scalmani, V. Barone, B. Mennucci, 
 G. A. Petersson, H. Nakatsuji, M. Caricato, X. Li, H. P. Hratchian, 
 A. F. Izmaylov, J. Bloino, G. Zheng, J. L. Sonnenberg, M. Hada, 
 M. Ehara, K. Toyota, R. Fukuda, J. Hasegawa, M. Ishida, T. Nakajima, 
 Y. Honda, O. Kitao, H. Nakai, T. Vreven, J. A. Montgomery, Jr., 
 J. E. Peralta, F. Ogliaro, M. Bearpark, J. J. Heyd, E. Brothers, 
 K. N. Kudin, V. N. Staroverov, R. Kobayashi, J. Normand, 
 K. Raghavachari, A. Rendell, J. C. Burant, S. S. Iyengar, J. Tomasi, 
 M. Cossi, N. Rega, J. M. Millam, M. Klene, J. E. Knox, J. B. Cross, 
 V. Bakken, C. Adamo, J. Jaramillo, R. Gomperts, R. E. Stratmann, 
 O. Yazyev, A. J. Austin, R. Cammi, C. Pomelli, J. W. Ochterski, 
 R. L. Martin, K. Morokuma, V. G. Zakrzewski, G. A. Voth, 
 P. Salvador, J. J. Dannenberg, S. Dapprich, A. D. Daniels, 
 O. Farkas, J. B. Foresman, J. V. Ortiz, J. Cioslowski, 
 and D. J. Fox, Gaussian, Inc., Wallingford CT, 2009.
 
 ******************************************
 Gaussian 09:  EM64L-G09RevA.02 11-Jun-2009
                22-Jan-2016 
 ******************************************
 %nprocshared=8
 Will use up to    8 processors via shared memory.
 %mem=8GB
 %chk=aminophenol_pro_m06.chk
 --------------------------------------------------------------
 # opt=calcfc freq m062x 6-311++g(d,p) scrf=(smd,solvent=water)
 --------------------------------------------------------------
 1/10=4,14=-1,18=20,19=15,26=3,38=1/1,3;
 2/9=110,12=2,17=6,18=5,40=1/2;
 3/5=4,6=6,7=1111,11=2,16=1,25=1,30=1,70=32201,71=2,72=1,74=-55/1,2,3;
 4//1;
 5/5=2,38=5,53=1/2;
 8/6=4,10=90,11=11/1;
 11/6=1,8=1,9=11,15=111,16=1/1,2,10;
 10/6=1,7=6,13=1/2;
 6/7=2,8=2,9=2,10=2,28=1/1;
 7/10=1,18=20,25=1/1,2,3,16;
 1/10=4,14=-1,18=20,19=15/3(2);
 2/9=110/2;
 99//99;
 2/9=110/2;
 3/5=4,6=6,7=1111,11=2,16=1,25=1,30=1,70=32205,71=1,72=1,74=-55/1,2,3;
 4/5=5,16=3/1;
 5/5=2,38=5,53=1/2;
 7//1,2,3,16;
 1/14=-1,18=20,19=15/3(-5);
 2/9=110/2;
 6/7=2,8=2,9=2,10=2,19=2,28=1/1;
 99/9=1/99;
 -----------
 aminophenol
 -----------
 Symbolic Z-matrix:
 Charge =  1 Multiplicity = 2
 C                     1.249     1.082     0.028 
 C                    -1.212    -0.261    -0.05 
 C                     1.2      -0.3       0.008 
 C                     0.059     1.78      0.009 
 C                    -1.159     1.134    -0.029 
 C                    -0.007    -0.965    -0.03 
 O                     2.415    -0.978     0.028 
 N                    -2.406    -0.922    -0.088 
 H                     2.303    -1.94      0.012 
 H                     2.197     1.571     0.058 
 H                     0.081     2.852     0.025 
 H                    -2.068     1.701    -0.043 
 H                    -3.269    -0.422    -0.102 
 H                    -2.448    -1.918    -0.103 
 H                    -0.026    -2.038    -0.046 
 

 GradGradGradGradGradGradGradGradGradGradGradGradGradGradGradGradGradGrad
 Berny optimization.
 Initialization pass.
                           ----------------------------
                           !    Initial Parameters    !
                           ! (Angstroms and Degrees)  !
 --------------------------                            --------------------------
 ! Name  Definition              Value          Derivative Info.                !
 --------------------------------------------------------------------------------
 ! R1    R(1,3)                  1.383          calculate D2E/DX2 analytically  !
 ! R2    R(1,4)                  1.3797         calculate D2E/DX2 analytically  !
 ! R3    R(1,10)                 1.0671         calculate D2E/DX2 analytically  !
 ! R4    R(2,5)                  1.3962         calculate D2E/DX2 analytically  !
 ! R5    R(2,6)                  1.3957         calculate D2E/DX2 analytically  !
 ! R6    R(2,8)                  1.3653         calculate D2E/DX2 analytically  !
 ! R7    R(3,6)                  1.3786         calculate D2E/DX2 analytically  !
 ! R8    R(3,7)                  1.3915         calculate D2E/DX2 analytically  !
 ! R9    R(4,5)                  1.3792         calculate D2E/DX2 analytically  !
 ! R10   R(4,11)                 1.0723         calculate D2E/DX2 analytically  !
 ! R11   R(5,12)                 1.0714         calculate D2E/DX2 analytically  !
 ! R12   R(6,15)                 1.0733         calculate D2E/DX2 analytically  !
 ! R13   R(7,9)                  0.9686         calculate D2E/DX2 analytically  !
 ! R14   R(8,13)                 0.9975         calculate D2E/DX2 analytically  !
 ! R15   R(8,14)                 0.997          calculate D2E/DX2 analytically  !
 ! A1    A(3,1,4)              118.3442         calculate D2E/DX2 analytically  !
 ! A2    A(3,1,10)             119.327          calculate D2E/DX2 analytically  !
 ! A3    A(4,1,10)             122.3288         calculate D2E/DX2 analytically  !
 ! A4    A(5,2,6)              118.0985         calculate D2E/DX2 analytically  !
 ! A5    A(5,2,8)              121.1555         calculate D2E/DX2 analytically  !
 ! A6    A(6,2,8)              120.7461         calculate D2E/DX2 analytically  !
 ! A7    A(1,3,6)              120.8933         calculate D2E/DX2 analytically  !
 ! A8    A(1,3,7)              117.1125         calculate D2E/DX2 analytically  !
 ! A9    A(6,3,7)              121.9942         calculate D2E/DX2 analytically  !
 ! A10   A(1,4,5)              121.6743         calculate D2E/DX2 analytically  !
 ! A11   A(1,4,11)             119.1982         calculate D2E/DX2 analytically  !
 ! A12   A(5,4,11)             119.1275         calculate D2E/DX2 analytically  !
 ! A13   A(2,5,4)              120.1273         calculate D2E/DX2 analytically  !
 ! A14   A(2,5,12)             119.7591         calculate D2E/DX2 analytically  !
 ! A15   A(4,5,12)             120.1136         calculate D2E/DX2 analytically  !
 ! A16   A(2,6,3)              120.8623         calculate D2E/DX2 analytically  !
 ! A17   A(2,6,15)             119.2595         calculate D2E/DX2 analytically  !
 ! A18   A(3,6,15)             119.8781         calculate D2E/DX2 analytically  !
 ! A19   A(3,7,9)              112.5015         calculate D2E/DX2 analytically  !
 ! A20   A(2,8,13)             120.9535         calculate D2E/DX2 analytically  !
 ! A21   A(2,8,14)             121.3942         calculate D2E/DX2 analytically  !
 ! A22   A(13,8,14)            117.6522         calculate D2E/DX2 analytically  !
 ! D1    D(4,1,3,6)              0.0012         calculate D2E/DX2 analytically  !
 ! D2    D(4,1,3,7)           -179.9941         calculate D2E/DX2 analytically  !
 ! D3    D(10,1,3,6)           179.9626         calculate D2E/DX2 analytically  !
 ! D4    D(10,1,3,7)            -0.0327         calculate D2E/DX2 analytically  !
 ! D5    D(3,1,4,5)             -0.001          calculate D2E/DX2 analytically  !
 ! D6    D(3,1,4,11)           179.9468         calculate D2E/DX2 analytically  !
 ! D7    D(10,1,4,5)          -179.9611         calculate D2E/DX2 analytically  !
 ! D8    D(10,1,4,11)           -0.0133         calculate D2E/DX2 analytically  !
 ! D9    D(6,2,5,4)              0.0658         calculate D2E/DX2 analytically  !
 ! D10   D(6,2,5,12)          -179.9643         calculate D2E/DX2 analytically  !
 ! D11   D(8,2,5,4)           -179.9825         calculate D2E/DX2 analytically  !
 ! D12   D(8,2,5,12)            -0.0127         calculate D2E/DX2 analytically  !
 ! D13   D(5,2,6,3)             -0.0661         calculate D2E/DX2 analytically  !
 ! D14   D(5,2,6,15)          -179.9763         calculate D2E/DX2 analytically  !
 ! D15   D(8,2,6,3)            179.982          calculate D2E/DX2 analytically  !
 ! D16   D(8,2,6,15)             0.0719         calculate D2E/DX2 analytically  !
 ! D17   D(5,2,8,13)             0.0242         calculate D2E/DX2 analytically  !
 ! D18   D(5,2,8,14)          -179.9937         calculate D2E/DX2 analytically  !
 ! D19   D(6,2,8,13)           179.9746         calculate D2E/DX2 analytically  !
 ! D20   D(6,2,8,14)            -0.0434         calculate D2E/DX2 analytically  !
 ! D21   D(1,3,6,2)              0.0333         calculate D2E/DX2 analytically  !
 ! D22   D(1,3,6,15)           179.9429         calculate D2E/DX2 analytically  !
 ! D23   D(7,3,6,2)           -179.9717         calculate D2E/DX2 analytically  !
 ! D24   D(7,3,6,15)            -0.0621         calculate D2E/DX2 analytically  !
 ! D25   D(1,3,7,9)           -179.9869         calculate D2E/DX2 analytically  !
 ! D26   D(6,3,7,9)              0.0178         calculate D2E/DX2 analytically  !
 ! D27   D(1,4,5,2)             -0.0335         calculate D2E/DX2 analytically  !
 ! D28   D(1,4,5,12)           179.9968         calculate D2E/DX2 analytically  !
 ! D29   D(11,4,5,2)          -179.9813         calculate D2E/DX2 analytically  !
 ! D30   D(11,4,5,12)            0.0489         calculate D2E/DX2 analytically  !
 --------------------------------------------------------------------------------
 Trust Radius=3.00D-01 FncErr=1.00D-07 GrdErr=1.00D-06
 Number of steps in this run=  77 maximum allowed number of steps= 100.
 GradGradGradGradGradGradGradGradGradGradGradGradGradGradGradGradGradGrad

                          Input orientation:                          
 ---------------------------------------------------------------------
 Center     Atomic      Atomic             Coordinates (Angstroms)
 Number     Number       Type             X           Y           Z
 ---------------------------------------------------------------------
      1          6           0        1.249000    1.082000    0.028000
      2          6           0       -1.212000   -0.261000   -0.050000
      3          6           0        1.200000   -0.300000    0.008000
      4          6           0        0.059000    1.780000    0.009000
      5          6           0       -1.159000    1.134000   -0.029000
      6          6           0       -0.007000   -0.965000   -0.030000
      7          8           0        2.415000   -0.978000    0.028000
      8          7           0       -2.406000   -0.922000   -0.088000
      9          1           0        2.303000   -1.940000    0.012000
     10          1           0        2.197000    1.571000    0.058000
     11          1           0        0.081000    2.852000    0.025000
     12          1           0       -2.068000    1.701000   -0.043000
     13          1           0       -3.269000   -0.422000   -0.102000
     14          1           0       -2.448000   -1.918000   -0.103000
     15          1           0       -0.026000   -2.038000   -0.046000
 ---------------------------------------------------------------------
                    Distance matrix (angstroms):
                    1          2          3          4          5
     1  C    0.000000
     2  C    2.804684   0.000000
     3  C    1.383013   2.413012   0.000000
     4  C    1.379734   2.405120   2.372400   0.000000
     5  C    2.409236   1.396164   2.760907   1.379233   0.000000
     6  C    2.402313   1.395722   1.378593   2.746070   2.394349
     7  O    2.367099   3.698013   1.391513   3.627349   4.151779
     8  N    4.169952   1.365284   3.660510   3.658748   2.405333
     9  H    3.200571   3.895909   1.976417   4.344415   4.629968
    10  H    1.067111   3.871585   2.120648   2.148750   3.385450
    11  H    2.120644   3.371683   3.344780   1.072345   2.119443
    12  H    3.375010   2.140614   3.832287   2.129102   1.071432
    13  H    4.763532   2.063946   4.472018   3.992081   2.622702
    14  H    4.762874   2.067886   3.992261   4.469094   3.313865
    15  H    3.371276   2.136432   2.127589   3.819342   3.368317
                    6          7          8          9         10
     6  C    0.000000
     7  O    2.422729   0.000000
     8  N    2.400086   4.822720   0.000000
     9  H    2.507686   0.968630   4.818818   0.000000
    10  H    3.361050   2.558481   5.236790   3.512901   0.000000
    11  H    3.818410   4.485138   4.521174   5.282113   2.473764
    12  H    3.369784   5.222966   2.645071   5.689073   4.268176
    13  H    3.307669   5.712608   0.997479   5.776202   5.820207
    14  H    2.621454   4.954748   0.996998   4.752443   5.811632
    15  H    1.073287   2.662247   2.628996   2.331782   4.239979
                   11         12         13         14         15
    11  H    0.000000
    12  H    2.438776   0.000000
    13  H    4.685905   2.439879   0.000000
    14  H    5.400475   3.639390   1.706475   0.000000
    15  H    4.891686   4.260269   3.623761   2.425641   0.000000
 Stoichiometry    C6H7NO(1+,2)
 Framework group  C1[X(C6H7NO)]
 Deg. of freedom    39
 Full point group                 C1      NOp   1
 Largest Abelian subgroup         C1      NOp   1
 Largest concise Abelian subgroup C1      NOp   1
                         Standard orientation:                         
 ---------------------------------------------------------------------
 Center     Atomic      Atomic             Coordinates (Angstroms)
 Number     Number       Type             X           Y           Z
 ---------------------------------------------------------------------
      1          6           0        1.236301    1.090935   -0.000287
      2          6           0       -1.209657   -0.281488   -0.000158
      3          6           0        1.203334   -0.291685    0.000021
      4          6           0        0.037942    1.774747   -0.000152
      5          6           0       -1.172822    1.114191    0.000257
      6          6           0        0.003793   -0.971111    0.000427
      7          8           0        2.426470   -0.955197    0.000004
      8          7           0       -2.396250   -0.956763   -0.000121
      9          1           0        2.325608   -1.918561    0.000025
     10          1           0        2.178844    1.591273    0.000008
     11          1           0        0.047522    2.847049    0.000482
     12          1           0       -2.088599    1.670355    0.000406
     13          1           0       -3.265244   -0.467054   -0.000159
     14          1           0       -2.426707   -1.953296   -0.000323
     15          1           0       -0.002777   -2.044378   -0.000266
 ---------------------------------------------------------------------
 Rotational constants (GHZ):      3.7949911      1.8335636      1.2362601
 Standard basis: 6-311++G(d,p) (5D, 7F)
 There are   225 symmetry adapted basis functions of A   symmetry.
 Integral buffers will be    131072 words long.
 Raffenetti 2 integral format.
 Two-electron integral symmetry is turned on.
   225 basis functions,   351 primitive gaussians,   233 cartesian basis functions
    29 alpha electrons       28 beta electrons
       nuclear repulsion energy       347.7354822562 Hartrees.
 NAtoms=   15 NActive=   15 NUniq=   15 SFac= 7.50D-01 NAtFMM=   80 NAOKFM=F Big=F
 ------------------------------------------------------------------------------
 Polarizable Continuum Model (PCM)
 =================================
 Model                : PCM.
 Atomic radii         : SMD-Coulomb.
 Polarization charges : Total charges.
 Charge compensation  : None.
 Solution method      : Matrix inversion.
 Cavity type          : VdW (van der Waals Surface) (Alpha=1.000).
 Cavity algorithm     : GePol (No added spheres)
                        Default sphere list used, NSphG=   15.
                        Lebedev-Laikov grids with approx.  5.0 points / Ang**2.
                        Smoothing algorithm: Karplus/York (Gamma=1.0000).
                        Polarization charges: spherical gaussians, with
                                              point-specific exponents (IZeta= 3).
                        Self-potential: point-specific (ISelfS= 7).
                        Self-field    : sphere-specific E.n sum rule (ISelfD= 2).
 1st derivatives      : Analytical E(r).r(x)/FMM algorithm (CHGder, D1EAlg=3).
                        Cavity 1st derivative terms included.
 2nd derivatives      : Analytical E(r).r(xy)/FMM algorithm (CHGder, D2EAlg=3).
                        Cavity 2nd derivative terms included.
 Solvent              : Water, Eps=  78.355300 Eps(inf)=   1.777849
 ------------------------------------------------------------------------------
 Spheres list:
 ISph  on   Nord    Re0     Alpha      Xe            Ye            Ze
    1   C      1    1.850   1.000      1.236301      1.090935     -0.000287
    2   C      2    1.850   1.000     -1.209657     -0.281488     -0.000158
    3   C      3    1.850   1.000      1.203334     -0.291685      0.000021
    4   C      4    1.850   1.000      0.037942      1.774747     -0.000152
    5   C      5    1.850   1.000     -1.172822      1.114191      0.000257
    6   C      6    1.850   1.000      0.003793     -0.971111      0.000427
    7   O      7    1.520   1.000      2.426470     -0.955197      0.000004
    8   N      8    1.890   1.000     -2.396250     -0.956763     -0.000121
    9   H      9    1.200   1.000      2.325608     -1.918561      0.000025
   10   H     10    1.200   1.000      2.178844      1.591273      0.000008
   11   H     11    1.200   1.000      0.047522      2.847049      0.000482
   12   H     12    1.200   1.000     -2.088599      1.670355      0.000406
   13   H     13    1.200   1.000     -3.265244     -0.467054     -0.000159
   14   H     14    1.200   1.000     -2.426707     -1.953296     -0.000323
   15   H     15    1.200   1.000     -0.002777     -2.044378     -0.000266
 ------------------------------------------------------------------------------
 ------------------------------------------------------------------------------
 Atomic radii for non-electrostatic terms: SMD-CDS.
 ------------------------------------------------------------------------------
 Nuclear repulsion after PCM non-electrostatic terms =      347.7410164486 Hartrees.
 One-electron integrals computed using PRISM.
 NBasis=   225 RedAO= T  NBF=   225
 NBsUse=   224 1.00D-06 NBFU=   224
 Harris functional with IExCor= 1009 diagonalized for initial guess.
 ExpMin= 3.60D-02 ExpMax= 8.59D+03 ExpMxC= 1.30D+03 IAcc=3 IRadAn=         0 AccDes= 0.00D+00
 HarFok:  IExCor= 1009 AccDes= 0.00D+00 IRadAn=         0 IDoV= 1
 ScaDFX=  1.000000  1.000000  1.000000  1.000000
 FoFCou: FMM=F IPFlag=           0 FMFlag=      100000 FMFlg1=           0
         NFxFlg=           0 DoJE=T BraDBF=F KetDBF=T FulRan=T
         Omega=  0.000000  0.000000  1.000000  0.000000  0.000000 ICntrl=     500 IOpCl=  0
         NMat0=    1 NMatS0=    1 NMatT0=    0 NMatD0=    1 NMtDS0=    0 NMtDT0=    0
         I1Cent=           4 NGrid=           0.
 Petite list used in FoFCou.
 Initial guess orbital symmetries:
 Alpha Orbitals:
       Occupied  (A) (A) (A) (A) (A) (A) (A) (A) (A) (A) (A) (A)
                 (A) (A) (A) (A) (A) (A) (A) (A) (A) (A) (A) (A)
                 (A) (A) (A) (A) (A)
       Virtual   (A) (A) (A) (A) (A) (A) (A) (A) (A) (A) (A) (A)
                 (A) (A) (A) (A) (A) (A) (A) (A) (A) (A) (A) (A)
                 (A) (A) (A) (A) (A) (A) (A) (A) (A) (A) (A) (A)
                 (A) (A) (A) (A) (A) (A) (A) (A) (A) (A) (A) (A)
                 (A) (A) (A) (A) (A) (A) (A) (A) (A) (A) (A) (A)
                 (A) (A) (A) (A) (A) (A) (A) (A) (A) (A) (A) (A)
                 (A) (A) (A) (A) (A) (A) (A) (A) (A) (A) (A) (A)
                 (A) (A) (A) (A) (A) (A) (A) (A) (A) (A) (A) (A)
                 (A) (A) (A) (A) (A) (A) (A) (A) (A) (A) (A) (A)
                 (A) (A) (A) (A) (A) (A) (A) (A) (A) (A) (A) (A)
                 (A) (A) (A) (A) (A) (A) (A) (A) (A) (A) (A) (A)
                 (A) (A) (A) (A) (A) (A) (A) (A) (A) (A) (A) (A)
                 (A) (A) (A) (A) (A) (A) (A) (A) (A) (A) (A) (A)
                 (A) (A) (A) (A) (A) (A) (A) (A) (A) (A) (A) (A)
                 (A) (A) (A) (A) (A) (A) (A) (A) (A) (A) (A) (A)
                 (A) (A) (A) (A) (A) (A) (A) (A) (A) (A) (A) (A)
                 (A) (A) (A)
 Beta  Orbitals:
       Occupied  (A) (A) (A) (A) (A) (A) (A) (A) (A) (A) (A) (A)
                 (A) (A) (A) (A) (A) (A) (A) (A) (A) (A) (A) (A)
                 (A) (A) (A) (A)
       Virtual   (A) (A) (A) (A) (A) (A) (A) (A) (A) (A) (A) (A)
                 (A) (A) (A) (A) (A) (A) (A) (A) (A) (A) (A) (A)
                 (A) (A) (A) (A) (A) (A) (A) (A) (A) (A) (A) (A)
                 (A) (A) (A) (A) (A) (A) (A) (A) (A) (A) (A) (A)
                 (A) (A) (A) (A) (A) (A) (A) (A) (A) (A) (A) (A)
                 (A) (A) (A) (A) (A) (A) (A) (A) (A) (A) (A) (A)
                 (A) (A) (A) (A) (A) (A) (A) (A) (A) (A) (A) (A)
                 (A) (A) (A) (A) (A) (A) (A) (A) (A) (A) (A) (A)
                 (A) (A) (A) (A) (A) (A) (A) (A) (A) (A) (A) (A)
                 (A) (A) (A) (A) (A) (A) (A) (A) (A) (A) (A) (A)
                 (A) (A) (A) (A) (A) (A) (A) (A) (A) (A) (A) (A)
                 (A) (A) (A) (A) (A) (A) (A) (A) (A) (A) (A) (A)
                 (A) (A) (A) (A) (A) (A) (A) (A) (A) (A) (A) (A)
                 (A) (A) (A) (A) (A) (A) (A) (A) (A) (A) (A) (A)
                 (A) (A) (A) (A) (A) (A) (A) (A) (A) (A) (A) (A)
                 (A) (A) (A) (A) (A) (A) (A) (A) (A) (A) (A) (A)
                 (A) (A) (A) (A)
 The electronic state of the initial guess is 2-A.
 Initial guess <Sx>= 0.0000 <Sy>= 0.0000 <Sz>= 0.5000 <S**2>= 0.7500 S= 0.5000
 Requested convergence on RMS density matrix=1.00D-08 within 128 cycles.
 Requested convergence on MAX density matrix=1.00D-06.
 Requested convergence on             energy=1.00D-06.
 No special actions if energy rises.
 Keep R1 and R2 ints in memory in canonical form, NReq=749911081.
 Error on total polarization charges =  0.03157
 SCF Done:  E(UM062X) =  -362.588029349     A.U. after   19 cycles
             Convg  =    0.2520D-08             -V/T =  2.0036
 <Sx>= 0.0000 <Sy>= 0.0000 <Sz>= 0.5000 <S**2>= 0.7778 S= 0.5138
 <L.S>= 0.000000000000E+00
 SMD-CDS (non-electrostatic) energy             (kcal/mol) =       3.47
 (included in total energy above)
 Annihilation of the first spin contaminant:
 S**2 before annihilation     0.7778,   after     0.7504
 Range of M.O.s used for correlation:     1   224
 NBasis=   225 NAE=    29 NBE=    28 NFC=     0 NFV=     0
 NROrb=    224 NOA=    29 NOB=    28 NVA=   195 NVB=   196

 **** Warning!!: The largest alpha MO coefficient is  0.15862065D+03


 **** Warning!!: The largest beta MO coefficient is  0.16143625D+03

 Symmetrizing basis deriv contribution to polar:
 IMax=3 JMax=2 DiffMx= 0.00D+00
 G2DrvN: will do    16 centers at a time, making    1 passes doing MaxLOS=2.
 Calling FoFCou, ICntrl=  3107 FMM=F I1Cent=   0 AccDes= 0.00D+00.
 FoFDir/FoFCou used for L=0 through L=2.
 G2PCM: DoFxE=T DoFxN=T DoGrad=T DoPD/DQ/DG=FFF NFrqRd=   0 IEInf=0 DoCFld=F IF1Alg=4.
 End of G2Drv Frequency-dependent properties file   721 does not exist.
 End of G2Drv Frequency-dependent properties file   722 does not exist.
          IDoAtm=111111111111111
 NEqPCM:  Using equilibrium solvation (IEInf=0, Eps=  78.3553, EpsInf=   1.7778)
          Differentiating once with respect to nuclear coordinates.
          Keep R1 and R2 ints in memory in canonical form, NReq=744014547.
          There are    48 degrees of freedom in the 1st order CPHF.  IDoFFX=5.
     42 vectors produced by pass  0 Test12= 2.32D-10 2.08D-07 XBig12= 3.47D-01 2.56D-01.
 AX will form    42 AO Fock derivatives at one time.
     42 vectors produced by pass  1 Test12= 2.32D-10 2.08D-07 XBig12= 4.68D-02 6.42D-02.
     42 vectors produced by pass  2 Test12= 2.32D-10 2.08D-07 XBig12= 2.33D-03 1.13D-02.
     42 vectors produced by pass  3 Test12= 2.32D-10 2.08D-07 XBig12= 5.42D-05 1.75D-03.
     42 vectors produced by pass  4 Test12= 2.32D-10 2.08D-07 XBig12= 6.79D-07 1.28D-04.
     25 vectors produced by pass  5 Test12= 2.32D-10 2.08D-07 XBig12= 4.81D-09 6.27D-06.
      6 vectors produced by pass  6 Test12= 2.32D-10 2.08D-07 XBig12= 3.71D-11 7.59D-07.
 Inverted reduced A of dimension   241 with in-core refinement.
 End of Minotr Frequency-dependent properties file   721 does not exist.
 End of Minotr Frequency-dependent properties file   722 does not exist.

 **********************************************************************

            Population analysis using the SCF density.

 **********************************************************************

 Orbital symmetries:
 Alpha Orbitals:
       Occupied  (A) (A) (A) (A) (A) (A) (A) (A) (A) (A) (A) (A)
                 (A) (A) (A) (A) (A) (A) (A) (A) (A) (A) (A) (A)
                 (A) (A) (A) (A) (A)
       Virtual   (A) (A) (A) (A) (A) (A) (A) (A) (A) (A) (A) (A)
                 (A) (A) (A) (A) (A) (A) (A) (A) (A) (A) (A) (A)
                 (A) (A) (A) (A) (A) (A) (A) (A) (A) (A) (A) (A)
                 (A) (A) (A) (A) (A) (A) (A) (A) (A) (A) (A) (A)
                 (A) (A) (A) (A) (A) (A) (A) (A) (A) (A) (A) (A)
                 (A) (A) (A) (A) (A) (A) (A) (A) (A) (A) (A) (A)
                 (A) (A) (A) (A) (A) (A) (A) (A) (A) (A) (A) (A)
                 (A) (A) (A) (A) (A) (A) (A) (A) (A) (A) (A) (A)
                 (A) (A) (A) (A) (A) (A) (A) (A) (A) (A) (A) (A)
                 (A) (A) (A) (A) (A) (A) (A) (A) (A) (A) (A) (A)
                 (A) (A) (A) (A) (A) (A) (A) (A) (A) (A) (A) (A)
                 (A) (A) (A) (A) (A) (A) (A) (A) (A) (A) (A) (A)
                 (A) (A) (A) (A) (A) (A) (A) (A) (A) (A) (A) (A)
                 (A) (A) (A) (A) (A) (A) (A) (A) (A) (A) (A) (A)
                 (A) (A) (A) (A) (A) (A) (A) (A) (A) (A) (A) (A)
                 (A) (A) (A) (A) (A) (A) (A) (A) (A) (A) (A) (A)
                 (A) (A) (A)
 Beta  Orbitals:
       Occupied  (A) (A) (A) (A) (A) (A) (A) (A) (A) (A) (A) (A)
                 (A) (A) (A) (A) (A) (A) (A) (A) (A) (A) (A) (A)
                 (A) (A) (A) (A)
       Virtual   (A) (A) (A) (A) (A) (A) (A) (A) (A) (A) (A) (A)
                 (A) (A) (A) (A) (A) (A) (A) (A) (A) (A) (A) (A)
                 (A) (A) (A) (A) (A) (A) (A) (A) (A) (A) (A) (A)
                 (A) (A) (A) (A) (A) (A) (A) (A) (A) (A) (A) (A)
                 (A) (A) (A) (A) (A) (A) (A) (A) (A) (A) (A) (A)
                 (A) (A) (A) (A) (A) (A) (A) (A) (A) (A) (A) (A)
                 (A) (A) (A) (A) (A) (A) (A) (A) (A) (A) (A) (A)
                 (A) (A) (A) (A) (A) (A) (A) (A) (A) (A) (A) (A)
                 (A) (A) (A) (A) (A) (A) (A) (A) (A) (A) (A) (A)
                 (A) (A) (A) (A) (A) (A) (A) (A) (A) (A) (A) (A)
                 (A) (A) (A) (A) (A) (A) (A) (A) (A) (A) (A) (A)
                 (A) (A) (A) (A) (A) (A) (A) (A) (A) (A) (A) (A)
                 (A) (A) (A) (A) (A) (A) (A) (A) (A) (A) (A) (A)
                 (A) (A) (A) (A) (A) (A) (A) (A) (A) (A) (A) (A)
                 (A) (A) (A) (A) (A) (A) (A) (A) (A) (A) (A) (A)
                 (A) (A) (A) (A) (A) (A) (A) (A) (A) (A) (A) (A)
                 (A) (A) (A) (A)
 The electronic state is 2-A.
 Alpha  occ. eigenvalues --  -19.67093 -14.83693 -10.64644 -10.64313 -10.59000
 Alpha  occ. eigenvalues --  -10.58631 -10.57395 -10.57345  -1.19380  -1.10360
 Alpha  occ. eigenvalues --   -0.99791  -0.88444  -0.88140  -0.75457  -0.73705
 Alpha  occ. eigenvalues --   -0.66976  -0.65255  -0.60295  -0.59892  -0.56159
 Alpha  occ. eigenvalues --   -0.53589  -0.52629  -0.49475  -0.49292  -0.46229
 Alpha  occ. eigenvalues --   -0.44931  -0.42233  -0.32971  -0.31945
 Alpha virt. eigenvalues --   -0.00657   0.00155   0.00308   0.01385   0.01459
 Alpha virt. eigenvalues --    0.03381   0.03679   0.05517   0.06273   0.06718
 Alpha virt. eigenvalues --    0.07369   0.09058   0.09776   0.09781   0.12126
 Alpha virt. eigenvalues --    0.12750   0.12773   0.13153   0.13162   0.13371
 Alpha virt. eigenvalues --    0.14039   0.14417   0.14702   0.14813   0.16219
 Alpha virt. eigenvalues --    0.17941   0.18709   0.18752   0.19232   0.19566
 Alpha virt. eigenvalues --    0.20120   0.20909   0.21415   0.21824   0.24252
 Alpha virt. eigenvalues --    0.24471   0.25460   0.26394   0.26931   0.28473
 Alpha virt. eigenvalues --    0.28647   0.29040   0.29937   0.30801   0.31542
 Alpha virt. eigenvalues --    0.33178   0.33290   0.35382   0.37198   0.38962
 Alpha virt. eigenvalues --    0.39347   0.40755   0.43706   0.44780   0.51119
 Alpha virt. eigenvalues --    0.52231   0.54254   0.57190   0.57596   0.58084
 Alpha virt. eigenvalues --    0.58187   0.59957   0.60713   0.63261   0.63371
 Alpha virt. eigenvalues --    0.63523   0.65163   0.65953   0.70714   0.71180
 Alpha virt. eigenvalues --    0.71912   0.74822   0.76226   0.79839   0.80077
 Alpha virt. eigenvalues --    0.81504   0.83186   0.86743   0.87301   0.88235
 Alpha virt. eigenvalues --    0.90238   0.90970   0.92042   0.92583   0.94290
 Alpha virt. eigenvalues --    0.94705   1.00546   1.00586   1.02386   1.02673
 Alpha virt. eigenvalues --    1.10455   1.10940   1.13030   1.15806   1.17213
 Alpha virt. eigenvalues --    1.17971   1.20316   1.24683   1.26318   1.28827
 Alpha virt. eigenvalues --    1.32393   1.42242   1.46349   1.48954   1.53504
 Alpha virt. eigenvalues --    1.55099   1.56749   1.58585   1.59735   1.62127
 Alpha virt. eigenvalues --    1.62976   1.63960   1.67988   1.71614   1.72093
 Alpha virt. eigenvalues --    1.72402   1.78080   1.78123   1.81622   1.87587
 Alpha virt. eigenvalues --    1.88949   1.92886   1.93290   1.93878   1.96641
 Alpha virt. eigenvalues --    1.96797   1.98015   2.00893   2.02325   2.05008
 Alpha virt. eigenvalues --    2.09300   2.14221   2.16484   2.20655   2.22898
 Alpha virt. eigenvalues --    2.27704   2.34748   2.44013   2.48224   2.48946
 Alpha virt. eigenvalues --    2.49682   2.51608   2.54226   2.57602   2.64204
 Alpha virt. eigenvalues --    2.66358   2.68165   2.72711   2.73221   2.74916
 Alpha virt. eigenvalues --    2.75574   2.77996   2.78851   2.82131   2.83105
 Alpha virt. eigenvalues --    2.87588   2.89590   2.92014   2.94951   2.96735
 Alpha virt. eigenvalues --    3.07591   3.10120   3.11753   3.12487   3.21582
 Alpha virt. eigenvalues --    3.22014   3.34401   3.37639   3.44210   3.45305
 Alpha virt. eigenvalues --    3.48908   3.55665   3.64853   3.68246   3.88122
 Alpha virt. eigenvalues --    3.91321   3.94794   4.05345   4.14190   4.16383
 Alpha virt. eigenvalues --    4.17480   4.82636   4.83093   5.06140   5.10232
 Alpha virt. eigenvalues --    5.50416   5.82604  23.63883  23.98117  24.02154
 Alpha virt. eigenvalues --   24.13405  24.17341  24.26778  35.70563  50.02232
  Beta  occ. eigenvalues --  -19.67081 -14.83107 -10.64646 -10.64362 -10.58795
  Beta  occ. eigenvalues --  -10.58471 -10.57433 -10.57330  -1.19344  -1.08684
  Beta  occ. eigenvalues --   -0.98894  -0.87945  -0.87053  -0.75074  -0.73047
  Beta  occ. eigenvalues --   -0.66556  -0.64597  -0.59682  -0.59312  -0.55700
  Beta  occ. eigenvalues --   -0.52510  -0.51798  -0.49144  -0.46730  -0.45988
  Beta  occ. eigenvalues --   -0.44671  -0.38358  -0.31872
  Beta virt. eigenvalues --   -0.15545   0.00117   0.00862   0.01368   0.01480
  Beta virt. eigenvalues --    0.02345   0.03401   0.03687   0.05335   0.05824
  Beta virt. eigenvalues --    0.06708   0.07378   0.09071   0.09636   0.09863
  Beta virt. eigenvalues --    0.12027   0.12596   0.12795   0.13151   0.13153
  Beta virt. eigenvalues --    0.13389   0.14083   0.14560   0.14680   0.14810
  Beta virt. eigenvalues --    0.16182   0.17945   0.18717   0.18778   0.18977
  Beta virt. eigenvalues --    0.19357   0.20046   0.20847   0.21680   0.22415
  Beta virt. eigenvalues --    0.24110   0.24444   0.25384   0.26361   0.27062
  Beta virt. eigenvalues --    0.28363   0.28678   0.29010   0.29981   0.31031
  Beta virt. eigenvalues --    0.31906   0.33195   0.33529   0.35432   0.37287
  Beta virt. eigenvalues --    0.39270   0.39401   0.41004   0.44061   0.45165
  Beta virt. eigenvalues --    0.51471   0.52550   0.54431   0.57422   0.58094
  Beta virt. eigenvalues --    0.58202   0.58876   0.60238   0.61317   0.63386
  Beta virt. eigenvalues --    0.63524   0.63929   0.65269   0.66410   0.70742
  Beta virt. eigenvalues --    0.71653   0.72268   0.75325   0.76710   0.80183
  Beta virt. eigenvalues --    0.80583   0.81927   0.85513   0.86710   0.87577
  Beta virt. eigenvalues --    0.88455   0.90175   0.91446   0.92303   0.93074
  Beta virt. eigenvalues --    0.94340   0.94737   1.01294   1.01629   1.02492
  Beta virt. eigenvalues --    1.03014   1.10936   1.11960   1.13718   1.15969
  Beta virt. eigenvalues --    1.18000   1.18090   1.21388   1.25211   1.26664
  Beta virt. eigenvalues --    1.28831   1.32924   1.42789   1.46429   1.49464
  Beta virt. eigenvalues --    1.54012   1.55565   1.57305   1.59105   1.60246
  Beta virt. eigenvalues --    1.62587   1.63304   1.64204   1.68255   1.71921
  Beta virt. eigenvalues --    1.72646   1.72759   1.78435   1.78641   1.81971
  Beta virt. eigenvalues --    1.87868   1.89973   1.93669   1.93743   1.94654
  Beta virt. eigenvalues --    1.97224   1.97706   1.98700   2.01417   2.02605
  Beta virt. eigenvalues --    2.05909   2.09764   2.14528   2.17089   2.21419
  Beta virt. eigenvalues --    2.23363   2.28732   2.35283   2.44620   2.48719
  Beta virt. eigenvalues --    2.50499   2.51415   2.52056   2.55053   2.58021
  Beta virt. eigenvalues --    2.64652   2.67698   2.68677   2.73121   2.73436
  Beta virt. eigenvalues --    2.75481   2.76099   2.78514   2.79460   2.83742
  Beta virt. eigenvalues --    2.83797   2.88125   2.92081   2.93006   2.95454
  Beta virt. eigenvalues --    2.97397   3.08319   3.11234   3.12426   3.12753
  Beta virt. eigenvalues --    3.22026   3.22036   3.35078   3.38093   3.44611
  Beta virt. eigenvalues --    3.46198   3.49168   3.56057   3.65865   3.68834
  Beta virt. eigenvalues --    3.91477   3.92018   3.94955   4.05890   4.14889
  Beta virt. eigenvalues --    4.17541   4.18192   4.83611   4.84832   5.06832
  Beta virt. eigenvalues --    5.10264   5.50438   5.82671  23.64007  23.98315
  Beta virt. eigenvalues --   24.02412  24.14100  24.17492  24.27167  35.70031
  Beta virt. eigenvalues --   50.02222
          Condensed to atoms (all electrons):
              1          2          3          4          5          6
     1  C    8.650033   0.785489   0.222577  -0.273208  -0.167986  -3.104555
     2  C    0.785489   7.287403   0.078787  -0.341081   0.148478  -1.216411
     3  C    0.222577   0.078787   6.798005  -0.440658   0.985844  -1.704722
     4  C   -0.273208  -0.341081  -0.440658   5.619083  -0.384410   1.626260
     5  C   -0.167986   0.148478   0.985844  -0.384410   8.079159  -2.882573
     6  C   -3.104555  -1.216411  -1.704722   1.626260  -2.882573  12.304217
     7  O   -0.449950  -0.018453   0.404218   0.009930   0.041807   0.080033
     8  N    0.044874  -0.130108   0.029977   0.022078  -0.127879   0.076749
     9  H    0.104588   0.007456   0.081336  -0.013844   0.006198  -0.192468
    10  H    0.596635   0.031185  -0.094047  -0.067856   0.020523  -0.151020
    11  H   -0.128287   0.017500  -0.012717   0.447655  -0.138669   0.137172
    12  H    0.001442  -0.127067   0.039802  -0.058702   0.621752  -0.141573
    13  H    0.003757  -0.030617  -0.005131   0.012295  -0.051255   0.054984
    14  H    0.002938  -0.017347   0.010113  -0.009217   0.044641  -0.047801
    15  H   -0.055424  -0.139398  -0.147009   0.045302  -0.135317   0.768580
              7          8          9         10         11         12
     1  C   -0.449950   0.044874   0.104588   0.596635  -0.128287   0.001442
     2  C   -0.018453  -0.130108   0.007456   0.031185   0.017500  -0.127067
     3  C    0.404218   0.029977   0.081336  -0.094047  -0.012717   0.039802
     4  C    0.009930   0.022078  -0.013844  -0.067856   0.447655  -0.058702
     5  C    0.041807  -0.127879   0.006198   0.020523  -0.138669   0.621752
     6  C    0.080033   0.076749  -0.192468  -0.151020   0.137172  -0.141573
     7  O    8.008725  -0.001594   0.292400  -0.027630   0.001067   0.000442
     8  N   -0.001594   6.629459  -0.000592  -0.000407  -0.001989  -0.008015
     9  H    0.292400  -0.000592   0.355300   0.004610  -0.000604   0.000385
    10  H   -0.027630  -0.000407   0.004610   0.399428  -0.009643   0.001922
    11  H    0.001067  -0.001989  -0.000604  -0.009643   0.401490  -0.011117
    12  H    0.000442  -0.008015   0.000385   0.001922  -0.011117   0.408719
    13  H   -0.000293   0.359568  -0.000060  -0.000006   0.001166  -0.007343
    14  H    0.000632   0.361643   0.000377   0.000217  -0.000646   0.004135
    15  H   -0.014847  -0.004617  -0.006027  -0.001917   0.003611  -0.004315
             13         14         15
     1  C    0.003757   0.002938  -0.055424
     2  C   -0.030617  -0.017347  -0.139398
     3  C   -0.005131   0.010113  -0.147009
     4  C    0.012295  -0.009217   0.045302
     5  C   -0.051255   0.044641  -0.135317
     6  C    0.054984  -0.047801   0.768580
     7  O   -0.000293   0.000632  -0.014847
     8  N    0.359568   0.361643  -0.004617
     9  H   -0.000060   0.000377  -0.006027
    10  H   -0.000006   0.000217  -0.001917
    11  H    0.001166  -0.000646   0.003611
    12  H   -0.007343   0.004135  -0.004315
    13  H    0.289725  -0.009953   0.004570
    14  H   -0.009953   0.291878  -0.008576
    15  H    0.004570  -0.008576   0.431879
 Mulliken atomic charges:
              1
     1  C   -0.232924
     2  C   -0.335817
     3  C   -0.246374
     4  C   -0.193627
     5  C   -0.060313
     6  C    0.393129
     7  O   -0.326488
     8  N   -0.249144
     9  H    0.360946
    10  H    0.298006
    11  H    0.294009
    12  H    0.279530
    13  H    0.378592
    14  H    0.376968
    15  H    0.263506
 Sum of Mulliken atomic charges =   1.00000
 Mulliken charges with hydrogens summed into heavy atoms:
              1
     1  C    0.065082
     2  C   -0.335817
     3  C   -0.246374
     4  C    0.100382
     5  C    0.219218
     6  C    0.656635
     7  O    0.034458
     8  N    0.506416
 Sum of Mulliken charges with hydrogens summed into heavy atoms =   1.00000
          Atomic-Atomic Spin Densities.
              1          2          3          4          5          6
     1  C    0.418698  -0.007982   0.012980   0.004198   0.002577  -0.003943
     2  C   -0.007982   0.027462  -0.002136  -0.011801   0.064893   0.029502
     3  C    0.012980  -0.002136  -0.117067   0.004471  -0.013772   0.012835
     4  C    0.004198  -0.011801   0.004471  -0.160906   0.013459  -0.006717
     5  C    0.002577   0.064893  -0.013772   0.013459   0.233126   0.053287
     6  C   -0.003943   0.029502   0.012835  -0.006717   0.053287   0.037158
     7  O   -0.009688   0.001964   0.011832   0.000719  -0.000493   0.003145
     8  N    0.000093  -0.089641   0.002355   0.002835  -0.030317  -0.011467
     9  H   -0.000207   0.000463   0.000660  -0.000273   0.000310  -0.001067
    10  H    0.000256  -0.000848  -0.000714   0.002016   0.000196  -0.000661
    11  H   -0.001624   0.000594   0.000348  -0.000463  -0.000985  -0.001325
    12  H    0.000997  -0.002946   0.000060   0.003377  -0.001618   0.001038
    13  H    0.000204   0.000987   0.000137  -0.000368  -0.000100  -0.001238
    14  H   -0.000512   0.001772  -0.000420   0.000050   0.000680  -0.001807
    15  H    0.003263  -0.001382   0.004514  -0.001062   0.001153  -0.006143
              7          8          9         10         11         12
     1  C   -0.009688   0.000093  -0.000207   0.000256  -0.001624   0.000997
     2  C    0.001964  -0.089641   0.000463  -0.000848   0.000594  -0.002946
     3  C    0.011832   0.002355   0.000660  -0.000714   0.000348   0.000060
     4  C    0.000719   0.002835  -0.000273   0.002016  -0.000463   0.003377
     5  C   -0.000493  -0.030317   0.000310   0.000196  -0.000985  -0.001618
     6  C    0.003145  -0.011467  -0.001067  -0.000661  -0.001325   0.001038
     7  O    0.000609  -0.000232  -0.000297  -0.000488   0.000052  -0.000018
     8  N   -0.000232   0.560671  -0.000034   0.000017   0.000250  -0.000352
     9  H   -0.000297  -0.000034   0.000073   0.000031  -0.000010   0.000009
    10  H   -0.000488   0.000017   0.000031  -0.010889  -0.000299   0.000049
    11  H    0.000052   0.000250  -0.000010  -0.000299   0.004333  -0.000407
    12  H   -0.000018  -0.000352   0.000009   0.000049  -0.000407  -0.009854
    13  H    0.000003  -0.001679   0.000001   0.000011  -0.000002  -0.000177
    14  H    0.000020  -0.002343   0.000014  -0.000004   0.000019  -0.000007
    15  H   -0.000314   0.000355  -0.000203   0.000130  -0.000100  -0.000005
             13         14         15
     1  C    0.000204  -0.000512   0.003263
     2  C    0.000987   0.001772  -0.001382
     3  C    0.000137  -0.000420   0.004514
     4  C   -0.000368   0.000050  -0.001062
     5  C   -0.000100   0.000680   0.001153
     6  C   -0.001238  -0.001807  -0.006143
     7  O    0.000003   0.000020  -0.000314
     8  N   -0.001679  -0.002343   0.000355
     9  H    0.000001   0.000014  -0.000203
    10  H    0.000011  -0.000004   0.000130
    11  H   -0.000002   0.000019  -0.000100
    12  H   -0.000177  -0.000007  -0.000005
    13  H   -0.014182   0.000795  -0.000072
    14  H    0.000795  -0.014410  -0.000111
    15  H   -0.000072  -0.000111  -0.005024
 Mulliken atomic spin densities:
              1
     1  C    0.419311
     2  C    0.010899
     3  C   -0.083917
     4  C   -0.150465
     5  C    0.322395
     6  C    0.102598
     7  O    0.006815
     8  N    0.430512
     9  H   -0.000530
    10  H   -0.011197
    11  H    0.000379
    12  H   -0.009855
    13  H   -0.015679
    14  H   -0.016264
    15  H   -0.005001
 Sum of Mulliken atomic spin densities =   1.00000
 APT atomic charges:
              1
     1  C   -0.438783
     2  C    0.196236
     3  C   -0.297609
     4  C   -0.511631
     5  C   -0.637052
     6  C   -0.493399
     7  O   -0.652209
     8  N   -0.984185
     9  H    0.723854
    10  H    0.660591
    11  H    0.679442
    12  H    0.644388
    13  H    0.853550
    14  H    0.734195
    15  H    0.522613
 Sum of APT charges=   1.00000
 APT Atomic charges with hydrogens summed into heavy atoms:
              1
     1  C    0.221808
     2  C    0.196236
     3  C   -0.297609
     4  C    0.167810
     5  C    0.007336
     6  C    0.029214
     7  O    0.071645
     8  N    0.603560
     9  H    0.000000
    10  H    0.000000
    11  H    0.000000
    12  H    0.000000
    13  H    0.000000
    14  H    0.000000
    15  H    0.000000
 Sum of APT charges=   1.00000
 Electronic spatial extent (au):  <R**2>=            900.6018
 Charge=              1.0000 electrons
 Dipole moment (field-independent basis, Debye):
    X=             -6.6283    Y=             -2.4561    Z=             -0.0006  Tot=              7.0687
 Quadrupole moment (field-independent basis, Debye-Ang):
   XX=            -22.6162   YY=            -23.5680   ZZ=            -48.7565
   XY=              3.7394   XZ=              0.0017   YZ=              0.0049
 Traceless Quadrupole moment (field-independent basis, Debye-Ang):
   XX=              9.0307   YY=              8.0789   ZZ=            -17.1096
   XY=              3.7394   XZ=              0.0017   YZ=              0.0049
 Octapole moment (field-independent basis, Debye-Ang**2):
  XXX=            -76.1362  YYY=            -22.1543  ZZZ=             -0.0010  XYY=              0.5522
  XXY=            -17.8007  XXZ=             -0.0029  XZZ=              0.6936  YZZ=             -3.2464
  YYZ=              0.0018  XYZ=             -0.0043
 Hexadecapole moment (field-independent basis, Debye-Ang**3):
 XXXX=           -507.3301 YYYY=           -269.7366 ZZZZ=            -51.2716 XXXY=             38.1846
 XXXZ=              0.0161 YYYX=             -3.5885 YYYZ=              0.0343 ZZZX=              0.0016
 ZZZY=              0.0056 XXYY=            -97.6093 XXZZ=           -133.1542 YYZZ=            -80.6960
 XXYZ=              0.0123 YYXZ=              0.0057 ZZXY=             -0.7067
 N-N= 3.477410164486D+02 E-N=-2.285472064093D+03  KE= 5.410963327122D+02
  Exact polarizability:   0.000   0.000   0.000   0.000   0.000   0.000
 Approx polarizability: 143.369  18.753 105.014  -0.012  -0.009  52.716
                          Isotropic Fermi Contact Couplings
        Atom                 a.u.       MegaHertz       Gauss      10(-4) cm-1
     1  C(13)              0.04956      55.71725      19.88130      18.58527
     2  C(13)             -0.01759     -19.77596      -7.05655      -6.59655
     3  C(13)             -0.02213     -24.88220      -8.87859      -8.29981
     4  C(13)             -0.03075     -34.56976     -12.33535     -11.53123
     5  C(13)              0.03354      37.70332      13.45348      12.57647
     6  C(13)              0.01042      11.71144       4.17893       3.90652
     7  O(17)              0.00058      -0.35344      -0.12612      -0.11790
     8  N(14)              0.08842      28.56997      10.19448       9.52992
     9  H(1)              -0.00025      -1.10989      -0.39603      -0.37022
    10  H(1)              -0.00635     -28.38956     -10.13010      -9.46974
    11  H(1)               0.00119       5.33129       1.90234       1.77833
    12  H(1)              -0.00503     -22.47821      -8.02078      -7.49792
    13  H(1)              -0.00772     -34.50506     -12.31226     -11.50965
    14  H(1)              -0.00773     -34.53481     -12.32288     -11.51957
    15  H(1)              -0.00213      -9.53321      -3.40169      -3.17994
 --------------------------------------------------------
       Center         ----  Spin Dipole Couplings  ----
                      3XX-RR        3YY-RR        3ZZ-RR
 --------------------------------------------------------
     1   Atom       -0.202735     -0.208400      0.411136
     2   Atom       -0.033987     -0.036031      0.070018
     3   Atom        0.018295      0.026558     -0.044854
     4   Atom        0.058996      0.046790     -0.105786
     5   Atom       -0.156603     -0.149911      0.306514
     6   Atom       -0.056173     -0.054190      0.110363
     7   Atom       -0.006156     -0.007814      0.013971
     8   Atom       -0.502560     -0.493594      0.996154
     9   Atom        0.000435      0.001912     -0.002348
    10   Atom        0.018441     -0.014081     -0.004361
    11   Atom        0.006020     -0.000694     -0.005326
    12   Atom        0.007358     -0.000440     -0.006919
    13   Atom        0.033699     -0.019586     -0.014112
    14   Atom       -0.046171      0.059541     -0.013370
    15   Atom       -0.005274      0.011109     -0.005835
 --------------------------------------------------------
                        XY            XZ            YZ
 --------------------------------------------------------
     1   Atom        0.005549     -0.000114      0.000067
     2   Atom        0.008705     -0.000099     -0.000002
     3   Atom       -0.002011     -0.000038     -0.000022
     4   Atom       -0.000127     -0.000033      0.000037
     5   Atom       -0.003693      0.000174     -0.000120
     6   Atom       -0.005056     -0.000019     -0.000013
     7   Atom       -0.004905      0.000030     -0.000014
     8   Atom       -0.004714     -0.000095     -0.000210
     9   Atom       -0.001913      0.000000     -0.000001
    10   Atom        0.026092      0.000007      0.000008
    11   Atom       -0.001842     -0.000003     -0.000003
    12   Atom       -0.022095     -0.000006      0.000006
    13   Atom       -0.043694      0.000000     -0.000004
    14   Atom        0.002934      0.000000      0.000011
    15   Atom       -0.006209     -0.000001      0.000008
 --------------------------------------------------------


 ---------------------------------------------------------------------------------
              Anisotropic Spin Dipole Couplings in Principal Axis System
 ---------------------------------------------------------------------------------

       Atom             a.u.   MegaHertz   Gauss  10(-4) cm-1        Axes

              Baa    -0.2118   -28.421   -10.141    -9.480 -0.5222  0.8528 -0.0002
     1 C(13)  Bbb    -0.1993   -26.749    -9.545    -8.923  0.8528  0.5222  0.0001
              Bcc     0.4111    55.170    19.686    18.403 -0.0002  0.0001  1.0000
 
              Baa    -0.0438    -5.874    -2.096    -1.959 -0.6646  0.7472 -0.0006
     2 C(13)  Bbb    -0.0262    -3.522    -1.257    -1.175  0.7472  0.6646  0.0008
              Bcc     0.0700     9.396     3.353     3.134 -0.0010 -0.0001  1.0000
 
              Baa    -0.0449    -6.019    -2.148    -2.008  0.0006  0.0003  1.0000
     3 C(13)  Bbb     0.0178     2.393     0.854     0.798  0.9744  0.2246 -0.0007
              Bcc     0.0270     3.626     1.294     1.210 -0.2246  0.9744 -0.0002
 
              Baa    -0.1058   -14.196    -5.065    -4.735  0.0002 -0.0002  1.0000
     4 C(13)  Bbb     0.0468     6.279     2.240     2.094  0.0104  0.9999  0.0002
              Bcc     0.0590     7.917     2.825     2.641  0.9999 -0.0104 -0.0002
 
              Baa    -0.1582   -21.234    -7.577    -7.083  0.9142  0.4053 -0.0002
     5 C(13)  Bbb    -0.1483   -19.897    -7.100    -6.637 -0.4053  0.9142  0.0004
              Bcc     0.3065    41.131    14.677    13.720  0.0004 -0.0003  1.0000
 
              Baa    -0.0603    -8.096    -2.889    -2.701  0.7722  0.6354  0.0001
     6 C(13)  Bbb    -0.0500    -6.713    -2.396    -2.239 -0.6354  0.7722  0.0000
              Bcc     0.1104    14.810     5.284     4.940 -0.0001 -0.0001  1.0000
 
              Baa    -0.0120     0.865     0.309     0.289  0.6455  0.7638 -0.0003
     7 O(17)  Bbb    -0.0020     0.146     0.052     0.049  0.7638 -0.6455 -0.0020
              Bcc     0.0140    -1.011    -0.361    -0.337  0.0017 -0.0010  1.0000
 
              Baa    -0.5046   -19.461    -6.944    -6.491  0.9190  0.3943  0.0001
     8 N(14)  Bbb    -0.4916   -18.959    -6.765    -6.324 -0.3943  0.9190  0.0001
              Bcc     0.9962    38.419    13.709    12.815 -0.0001 -0.0001  1.0000
 
              Baa    -0.0023    -1.253    -0.447    -0.418  0.0002  0.0002  1.0000
     9 H(1)   Bbb    -0.0009    -0.468    -0.167    -0.156  0.8247  0.5656 -0.0003
              Bcc     0.0032     1.720     0.614     0.574 -0.5656  0.8247 -0.0001
 
              Baa    -0.0286   -15.240    -5.438    -5.084 -0.4853  0.8743 -0.0002
    10 H(1)   Bbb    -0.0044    -2.327    -0.830    -0.776 -0.0003  0.0000  1.0000
              Bcc     0.0329    17.567     6.268     5.860  0.8743  0.4853  0.0003
 
              Baa    -0.0053    -2.842    -1.014    -0.948  0.0004  0.0009  1.0000
    11 H(1)   Bbb    -0.0012    -0.622    -0.222    -0.208  0.2483  0.9687 -0.0010
              Bcc     0.0065     3.464     1.236     1.155  0.9687 -0.2483 -0.0002
 
              Baa    -0.0190   -10.125    -3.613    -3.377  0.6427  0.7661 -0.0001
    12 H(1)   Bbb    -0.0069    -3.691    -1.317    -1.231  0.0003 -0.0001  1.0000
              Bcc     0.0259    13.817     4.930     4.609  0.7661 -0.6427 -0.0003
 
              Baa    -0.0441   -23.540    -8.400    -7.852  0.4896  0.8720  0.0001
    13 H(1)   Bbb    -0.0141    -7.530    -2.687    -2.512 -0.0001 -0.0001  1.0000
              Bcc     0.0582    31.070    11.087    10.364  0.8720 -0.4896  0.0000
 
              Baa    -0.0463   -24.678    -8.806    -8.232  0.9996 -0.0277  0.0000
    14 H(1)   Bbb    -0.0134    -7.134    -2.545    -2.380  0.0000 -0.0002  1.0000
              Bcc     0.0596    31.812    11.351    10.611  0.0277  0.9996  0.0002
 
              Baa    -0.0074    -3.928    -1.401    -1.310  0.9479  0.3186 -0.0013
    15 H(1)   Bbb    -0.0058    -3.113    -1.111    -1.038  0.0013  0.0000  1.0000
              Bcc     0.0132     7.041     2.512     2.349 -0.3186  0.9479  0.0004
 

 ---------------------------------------------------------------------------------

 D2PCM: PCM CHGder 2nd derivatives, FixD1E=F FixD2E=F DoIter=F DoCFld=F I1PDM=0
 Calling FoFJK, ICntrl=    100147 FMM=F ISym2X=0 I1Cent= 0 IOpClX= 1 NMat=1 NMatS=1 NMatT=0.
 ***** Axes restored to original set *****
 -------------------------------------------------------------------
 Center     Atomic                   Forces (Hartrees/Bohr)
 Number     Number              X              Y              Z
 -------------------------------------------------------------------
      1        6           0.000931590    0.007731441    0.000170614
      2        6          -0.032388961   -0.029396853   -0.001098591
      3        6           0.011625096   -0.049869599   -0.000402554
      4        6          -0.015375802    0.006802887   -0.000218811
      5        6           0.001884803    0.028628138    0.000376972
      6        6           0.021324928   -0.013431110    0.000219431
      7        8          -0.017645412    0.016291059   -0.000202167
      8        7           0.044041443    0.026798474    0.001419952
      9        1          -0.004992601    0.003371063   -0.000072590
     10        1           0.009543727    0.006693136    0.000301876
     11        1          -0.000377472    0.007009979    0.000061656
     12        1          -0.007750157    0.004326418   -0.000117270
     13        1          -0.013480069    0.010500987   -0.000185553
     14        1           0.001976213   -0.016974546   -0.000186429
     15        1           0.000682675   -0.008481474   -0.000066536
 -------------------------------------------------------------------
 Cartesian Forces:  Max     0.049869599 RMS     0.015298551

 GradGradGradGradGradGradGradGradGradGradGradGradGradGradGradGradGradGrad
 Berny optimization.
 Internal  Forces:  Max     0.038337379 RMS     0.010014263
 Search for a local minimum.
 Step number   1 out of a maximum of   77
 All quantities printed in internal units (Hartrees-Bohrs-Radians)
 Mixed Optimization -- RFO/linear search
 Second derivative matrix not updated -- analytic derivatives used.
     Eigenvalues ---    0.00671   0.01154   0.01283   0.01383   0.01545
     Eigenvalues ---    0.01599   0.01792   0.02273   0.02365   0.02500
     Eigenvalues ---    0.02710   0.03031   0.10361   0.10806   0.11387
     Eigenvalues ---    0.11669   0.12177   0.12502   0.14205   0.16058
     Eigenvalues ---    0.18612   0.19141   0.19991   0.21384   0.32071
     Eigenvalues ---    0.35962   0.38056   0.38594   0.38829   0.39196
     Eigenvalues ---    0.39784   0.41607   0.45356   0.48524   0.50234
     Eigenvalues ---    0.51445   0.51826   0.51920   0.552581000.00000
     Eigenvalues --- 1000.000001000.000001000.000001000.000001000.00000
     Eigenvalues --- 1000.000001000.000001000.000001000.000001000.00000
     Eigenvalues --- 1000.000001000.000001000.000001000.000001000.00000
     Eigenvalues --- 1000.000001000.000001000.000001000.000001000.00000
     Eigenvalues --- 1000.000001000.000001000.000001000.000001000.00000
     Eigenvalues --- 1000.000001000.00000
 RFO step:  Lambda=-1.64502674D-02 EMin= 6.71469154D-03
 Linear search not attempted -- first point.
 Iteration  1 RMS(Cart)=  0.03799417 RMS(Int)=  0.00057956
 Iteration  2 RMS(Cart)=  0.00102138 RMS(Int)=  0.00001723
 Iteration  3 RMS(Cart)=  0.00000060 RMS(Int)=  0.00001723
 Variable       Old X    -DE/DX   Delta X   Delta X   Delta X     New X
                                 (Linear)    (Quad)   (Total)
    R1        2.61352   0.03070   0.00000   0.07194   0.07198   2.68549
    R2        2.60732   0.01788   0.00000   0.02537   0.02537   2.63269
    R3        2.01655   0.01156   0.00000   0.02793   0.02793   2.04447
    R4        2.63837   0.03001   0.00000   0.07007   0.07004   2.70841
    R5        2.63753   0.01972   0.00000   0.04191   0.04190   2.67944
    R6        2.58001  -0.03834   0.00000  -0.09042  -0.09042   2.48959
    R7        2.60516  -0.01003   0.00000  -0.02232  -0.02229   2.58287
    R8        2.62958  -0.02935   0.00000  -0.07999  -0.07999   2.54959
    R9        2.60637  -0.00523   0.00000  -0.01079  -0.01081   2.59556
   R10        2.02644   0.00700   0.00000   0.01675   0.01675   2.04319
   R11        2.02471   0.00886   0.00000   0.02124   0.02124   2.04595
   R12        2.02822   0.00847   0.00000   0.01969   0.01969   2.04791
   R13        1.83045  -0.00272   0.00000  -0.00342  -0.00342   1.82702
   R14        1.88496   0.01696   0.00000   0.03025   0.03025   1.91521
   R15        1.88405   0.01684   0.00000   0.03009   0.03009   1.91414
    A1        2.06550   0.00762   0.00000   0.03378   0.03381   2.09931
    A2        2.08265  -0.00227   0.00000  -0.01544  -0.01546   2.06719
    A3        2.13504  -0.00535   0.00000  -0.01833  -0.01835   2.11669
    A4        2.06121   0.01336   0.00000   0.04178   0.04174   2.10295
    A5        2.11456  -0.00921   0.00000  -0.04348  -0.04346   2.07110
    A6        2.10742  -0.00415   0.00000   0.00170   0.00172   2.10913
    A7        2.10999   0.00164   0.00000   0.00308   0.00314   2.11313
    A8        2.04400  -0.00383   0.00000  -0.02794  -0.02797   2.01603
    A9        2.12920   0.00219   0.00000   0.02486   0.02483   2.15403
   A10        2.12362  -0.00582   0.00000  -0.02758  -0.02760   2.09601
   A11        2.08040   0.00339   0.00000   0.00877   0.00878   2.08918
   A12        2.07917   0.00243   0.00000   0.01882   0.01883   2.09800
   A13        2.09662  -0.00548   0.00000  -0.01080  -0.01086   2.08576
   A14        2.09019   0.00235   0.00000  -0.01552  -0.01549   2.07470
   A15        2.09638   0.00313   0.00000   0.02632   0.02635   2.12273
   A16        2.10945  -0.01132   0.00000  -0.04025  -0.04023   2.06922
   A17        2.08147   0.00647   0.00000   0.01573   0.01572   2.09719
   A18        2.09227   0.00485   0.00000   0.02452   0.02451   2.11677
   A19        1.96352  -0.00985   0.00000  -0.03814  -0.03814   1.92539
   A20        2.11104  -0.00131   0.00000  -0.00414  -0.00414   2.10690
   A21        2.11873  -0.00185   0.00000  -0.00393  -0.00393   2.11480
   A22        2.05342   0.00316   0.00000   0.00807   0.00807   2.06149
    D1        0.00002  -0.00001   0.00000  -0.00007  -0.00007  -0.00005
    D2       -3.14149  -0.00001   0.00000  -0.00007  -0.00007  -3.14156
    D3        3.14094   0.00001   0.00000   0.00032   0.00032   3.14126
    D4       -0.00057   0.00002   0.00000   0.00032   0.00032  -0.00025
    D5       -0.00002   0.00001   0.00000   0.00003   0.00003   0.00001
    D6        3.14066   0.00003   0.00000   0.00055   0.00054   3.14120
    D7       -3.14091  -0.00002   0.00000  -0.00037  -0.00037  -3.14129
    D8       -0.00023   0.00000   0.00000   0.00014   0.00014  -0.00010
    D9        0.00115  -0.00002   0.00000  -0.00056  -0.00057   0.00058
   D10       -3.14097  -0.00001   0.00000  -0.00027  -0.00029  -3.14125
   D11       -3.14129   0.00000   0.00000  -0.00005  -0.00006  -3.14134
   D12       -0.00022   0.00001   0.00000   0.00024   0.00023   0.00001
   D13       -0.00115   0.00002   0.00000   0.00055   0.00055  -0.00061
   D14       -3.14118  -0.00001   0.00000  -0.00022  -0.00021  -3.14139
   D15        3.14128   0.00001   0.00000   0.00006   0.00004   3.14132
   D16        0.00125  -0.00002   0.00000  -0.00071  -0.00072   0.00054
   D17        0.00042  -0.00001   0.00000  -0.00022  -0.00022   0.00020
   D18       -3.14148  -0.00001   0.00000  -0.00013  -0.00013   3.14158
   D19        3.14115   0.00002   0.00000   0.00032   0.00032   3.14146
   D20       -0.00076   0.00002   0.00000   0.00041   0.00041  -0.00035
   D21        0.00058  -0.00001   0.00000  -0.00024  -0.00024   0.00034
   D22        3.14060   0.00002   0.00000   0.00052   0.00052   3.14112
   D23       -3.14110  -0.00001   0.00000  -0.00024  -0.00024  -3.14134
   D24       -0.00108   0.00002   0.00000   0.00052   0.00052  -0.00056
   D25       -3.14136   0.00000   0.00000  -0.00009  -0.00009  -3.14145
   D26        0.00031   0.00000   0.00000  -0.00009  -0.00009   0.00022
   D27       -0.00058   0.00002   0.00000   0.00032   0.00031  -0.00027
   D28        3.14154   0.00000   0.00000   0.00004   0.00003   3.14157
   D29       -3.14127  -0.00001   0.00000  -0.00019  -0.00020  -3.14146
   D30        0.00085  -0.00002   0.00000  -0.00047  -0.00048   0.00038
         Item               Value     Threshold  Converged?
 Maximum Force            0.038337     0.000450     NO 
 RMS     Force            0.010014     0.000300     NO 
 Maximum Displacement     0.136007     0.001800     NO 
 RMS     Displacement     0.038171     0.001200     NO 
 Predicted change in Energy=-8.590614D-03
 GradGradGradGradGradGradGradGradGradGradGradGradGradGradGradGradGradGrad

                          Input orientation:                          
 ---------------------------------------------------------------------
 Center     Atomic      Atomic             Coordinates (Angstroms)
 Number     Number       Type             X           Y           Z
 ---------------------------------------------------------------------
      1          6           0        1.226176    1.073039    0.027528
      2          6           0       -1.197451   -0.282906   -0.049816
      3          6           0        1.195034   -0.347575    0.007210
      4          6           0        0.039133    1.802066    0.008991
      5          6           0       -1.169069    1.149892   -0.029068
      6          6           0        0.009521   -1.026736   -0.030632
      7          8           0        2.399305   -0.955523    0.027874
      8          7           0       -2.365367   -0.891395   -0.086586
      9          1           0        2.290736   -1.916092    0.011900
     10          1           0        2.188269    1.566947    0.057768
     11          1           0        0.073764    2.882602    0.025076
     12          1           0       -2.106353    1.691601   -0.044147
     13          1           0       -3.226901   -0.357795   -0.100131
     14          1           0       -2.429630   -1.902152   -0.102308
     15          1           0       -0.018168   -2.109972   -0.046659
 ---------------------------------------------------------------------
                    Distance matrix (angstroms):
                    1          2          3          4          5
     1  C    0.000000
     2  C    2.778226   0.000000
     3  C    1.421101   2.394038   0.000000
     4  C    1.393161   2.424811   2.440711   0.000000
     5  C    2.397146   1.433230   2.798698   1.373510   0.000000
     6  C    2.427486   1.417897   1.366797   2.829235   2.475234
     7  O    2.343351   3.659932   1.349183   3.629748   4.143586
     8  N    4.095266   1.317436   3.602915   3.611854   2.366705
     9  H    3.173081   3.852084   1.913330   4.346772   4.623006
    10  H    1.081888   3.859616   2.157421   2.162510   3.384257
    11  H    2.145361   3.412043   3.419299   1.081210   2.133037
    12  H    3.390208   2.173664   3.880726   2.148985   1.082672
    13  H    4.679047   2.031455   4.423250   3.917128   2.552028
    14  H    4.715245   2.035431   3.945490   4.452910   3.302931
    15  H    3.418400   2.174600   2.140282   3.912854   3.457108
                    6          7          8          9         10
     6  C    0.000000
     7  O    2.391560   0.000000
     8  N    2.379399   4.766478   0.000000
     9  H    2.448817   0.966818   4.768542   0.000000
    10  H    3.388502   2.531459   5.176861   3.484848   0.000000
    11  H    3.910262   4.487689   4.494984   5.286076   2.490612
    12  H    3.444773   5.226223   2.596297   5.687968   4.297640
    13  H    3.305562   5.659316   1.013486   5.734558   5.749229
    14  H    2.592479   4.922567   1.012920   4.721767   5.777998
    15  H    1.083709   2.680016   2.644970   2.317769   4.289406
                   11         12         13         14         15
    11  H    0.000000
    12  H    2.485194   0.000000
    13  H    4.627121   2.336405   0.000000
    14  H    5.401581   3.608733   1.738012   0.000000
    15  H    4.993935   4.337335   3.656358   2.421039   0.000000
 Stoichiometry    C6H7NO(1+,2)
 Framework group  C1[X(C6H7NO)]
 Deg. of freedom    39
 Full point group                 C1      NOp   1
 Largest Abelian subgroup         C1      NOp   1
 Largest concise Abelian subgroup C1      NOp   1
                         Standard orientation:                         
 ---------------------------------------------------------------------
 Center     Atomic      Atomic             Coordinates (Angstroms)
 Number     Number       Type             X           Y           Z
 ---------------------------------------------------------------------
      1          6           0       -1.190483    1.109890    0.000141
      2          6           0        1.188321   -0.325321    0.000031
      3          6           0       -1.205675   -0.311129   -0.000009
      4          6           0        0.020034    1.799488    0.000077
      5          6           0        1.206662    1.107792   -0.000146
      6          6           0       -0.042611   -1.029053   -0.000274
      7          8           0       -2.429467   -0.879133    0.000026
      8          7           0        2.336105   -0.972028    0.000100
      9          1           0       -2.352246   -1.842862    0.000043
     10          1           0       -2.136233    1.635285    0.000032
     11          1           0        0.020638    2.880698   -0.000176
     12          1           0        2.161374    1.618383   -0.000226
     13          1           0        3.214826   -0.467049    0.000206
     14          1           0        2.367397   -1.984464    0.000240
     15          1           0       -0.050242   -2.112734    0.000050
 ---------------------------------------------------------------------
 Rotational constants (GHZ):      3.7467343      1.8676160      1.2463528
 Standard basis: 6-311++G(d,p) (5D, 7F)
 There are   225 symmetry adapted basis functions of A   symmetry.
 Integral buffers will be    131072 words long.
 Raffenetti 2 integral format.
 Two-electron integral symmetry is turned on.
   225 basis functions,   351 primitive gaussians,   233 cartesian basis functions
    29 alpha electrons       28 beta electrons
       nuclear repulsion energy       347.9456928082 Hartrees.
 NAtoms=   15 NActive=   15 NUniq=   15 SFac= 7.50D-01 NAtFMM=   80 NAOKFM=F Big=F
 ------------------------------------------------------------------------------
 Polarizable Continuum Model (PCM)
 =================================
 Model                : PCM.
 Atomic radii         : SMD-Coulomb.
 Polarization charges : Total charges.
 Charge compensation  : None.
 Solution method      : Matrix inversion.
 Cavity type          : VdW (van der Waals Surface) (Alpha=1.000).
 Cavity algorithm     : GePol (No added spheres)
                        Default sphere list used, NSphG=   15.
                        Lebedev-Laikov grids with approx.  5.0 points / Ang**2.
                        Smoothing algorithm: Karplus/York (Gamma=1.0000).
                        Polarization charges: spherical gaussians, with
                                              point-specific exponents (IZeta= 3).
                        Self-potential: point-specific (ISelfS= 7).
                        Self-field    : sphere-specific E.n sum rule (ISelfD= 2).
 1st derivatives      : Analytical E(r).r(x)/FMM algorithm (CHGder, D1EAlg=3).
                        Cavity 1st derivative terms included.
 Solvent              : Water, Eps=  78.355300 Eps(inf)=   1.777849
 ------------------------------------------------------------------------------
 Spheres list:
 ISph  on   Nord    Re0     Alpha      Xe            Ye            Ze
    1   C      1    1.850   1.000     -1.190483      1.109890      0.000141
    2   C      2    1.850   1.000      1.188321     -0.325321      0.000031
    3   C      3    1.850   1.000     -1.205675     -0.311129     -0.000009
    4   C      4    1.850   1.000      0.020034      1.799488      0.000077
    5   C      5    1.850   1.000      1.206662      1.107792     -0.000146
    6   C      6    1.850   1.000     -0.042611     -1.029053     -0.000274
    7   O      7    1.520   1.000     -2.429467     -0.879133      0.000026
    8   N      8    1.890   1.000      2.336105     -0.972028      0.000100
    9   H      9    1.200   1.000     -2.352246     -1.842862      0.000043
   10   H     10    1.200   1.000     -2.136233      1.635285      0.000032
   11   H     11    1.200   1.000      0.020638      2.880698     -0.000176
   12   H     12    1.200   1.000      2.161374      1.618383     -0.000226
   13   H     13    1.200   1.000      3.214826     -0.467049      0.000206
   14   H     14    1.200   1.000      2.367397     -1.984464      0.000240
   15   H     15    1.200   1.000     -0.050242     -2.112734      0.000050
 ------------------------------------------------------------------------------
 ------------------------------------------------------------------------------
 Atomic radii for non-electrostatic terms: SMD-CDS.
 ------------------------------------------------------------------------------
 Nuclear repulsion after PCM non-electrostatic terms =      347.9517608083 Hartrees.
 One-electron integrals computed using PRISM.
 NBasis=   225 RedAO= T  NBF=   225
 NBsUse=   225 1.00D-06 NBFU=   225
 Initial guess read from the read-write file.
 B after Tr=     0.000000    0.000000    0.000000
         Rot=    1.000000    0.000000    0.000000    0.000000 Ang=   0.00 deg.
 Initial guess orbital symmetries:
 Alpha Orbitals:
       Occupied  (A) (A) (A) (A) (A) (A) (A) (A) (A) (A) (A) (A)
                 (A) (A) (A) (A) (A) (A) (A) (A) (A) (A) (A) (A)
                 (A) (A) (A) (A) (A)
       Virtual   (A) (A) (A) (A) (A) (A) (A) (A) (A) (A) (A) (A)
                 (A) (A) (A) (A) (A) (A) (A) (A) (A) (A) (A) (A)
                 (A) (A) (A) (A) (A) (A) (A) (A) (A) (A) (A) (A)
                 (A) (A) (A) (A) (A) (A) (A) (A) (A) (A) (A) (A)
                 (A) (A) (A) (A) (A) (A) (A) (A) (A) (A) (A) (A)
                 (A) (A) (A) (A) (A) (A) (A) (A) (A) (A) (A) (A)
                 (A) (A) (A) (A) (A) (A) (A) (A) (A) (A) (A) (A)
                 (A) (A) (A) (A) (A) (A) (A) (A) (A) (A) (A) (A)
                 (A) (A) (A) (A) (A) (A) (A) (A) (A) (A) (A) (A)
                 (A) (A) (A) (A) (A) (A) (A) (A) (A) (A) (A) (A)
                 (A) (A) (A) (A) (A) (A) (A) (A) (A) (A) (A) (A)
                 (A) (A) (A) (A) (A) (A) (A) (A) (A) (A) (A) (A)
                 (A) (A) (A) (A) (A) (A) (A) (A) (A) (A) (A) (A)
                 (A) (A) (A) (A) (A) (A) (A) (A) (A) (A) (A) (A)
                 (A) (A) (A) (A) (A) (A) (A) (A) (A) (A) (A) (A)
                 (A) (A) (A) (A) (A) (A) (A) (A) (A) (A) (A) (A)
                 (A) (A) (A) (A)
 Beta  Orbitals:
       Occupied  (A) (A) (A) (A) (A) (A) (A) (A) (A) (A) (A) (A)
                 (A) (A) (A) (A) (A) (A) (A) (A) (A) (A) (A) (A)
                 (A) (A) (A) (A)
       Virtual   (A) (A) (A) (A) (A) (A) (A) (A) (A) (A) (A) (A)
                 (A) (A) (A) (A) (A) (A) (A) (A) (A) (A) (A) (A)
                 (A) (A) (A) (A) (A) (A) (A) (A) (A) (A) (A) (A)
                 (A) (A) (A) (A) (A) (A) (A) (A) (A) (A) (A) (A)
                 (A) (A) (A) (A) (A) (A) (A) (A) (A) (A) (A) (A)
                 (A) (A) (A) (A) (A) (A) (A) (A) (A) (A) (A) (A)
                 (A) (A) (A) (A) (A) (A) (A) (A) (A) (A) (A) (A)
                 (A) (A) (A) (A) (A) (A) (A) (A) (A) (A) (A) (A)
                 (A) (A) (A) (A) (A) (A) (A) (A) (A) (A) (A) (A)
                 (A) (A) (A) (A) (A) (A) (A) (A) (A) (A) (A) (A)
                 (A) (A) (A) (A) (A) (A) (A) (A) (A) (A) (A) (A)
                 (A) (A) (A) (A) (A) (A) (A) (A) (A) (A) (A) (A)
                 (A) (A) (A) (A) (A) (A) (A) (A) (A) (A) (A) (A)
                 (A) (A) (A) (A) (A) (A) (A) (A) (A) (A) (A) (A)
                 (A) (A) (A) (A) (A) (A) (A) (A) (A) (A) (A) (A)
                 (A) (A) (A) (A) (A) (A) (A) (A) (A) (A) (A) (A)
                 (A) (A) (A) (A) (A)
 Initial guess <Sx>= 0.0000 <Sy>= 0.0000 <Sz>= 0.5000 <S**2>= 0.7889 S= 0.5193
 Harris functional with IExCor= 1009 diagonalized for initial guess.
 ExpMin= 3.60D-02 ExpMax= 8.59D+03 ExpMxC= 1.30D+03 IAcc=3 IRadAn=         0 AccDes= 0.00D+00
 HarFok:  IExCor= 1009 AccDes= 0.00D+00 IRadAn=         0 IDoV= 1
 ScaDFX=  1.000000  1.000000  1.000000  1.000000
 FoFCou: FMM=F IPFlag=           0 FMFlag=      100000 FMFlg1=           0
         NFxFlg=           0 DoJE=T BraDBF=F KetDBF=T FulRan=T
         Omega=  0.000000  0.000000  1.000000  0.000000  0.000000 ICntrl=     500 IOpCl=  0
         NMat0=    1 NMatS0=    1 NMatT0=    0 NMatD0=    1 NMtDS0=    0 NMtDT0=    0
         I1Cent=           4 NGrid=           0.
 Petite list used in FoFCou.
 Requested convergence on RMS density matrix=1.00D-08 within 128 cycles.
 Requested convergence on MAX density matrix=1.00D-06.
 Requested convergence on             energy=1.00D-06.
 No special actions if energy rises.
 Keep R1 and R2 ints in memory in canonical form, NReq=749911081.
 Error on total polarization charges =  0.03175
 SCF Done:  E(UM062X) =  -362.596650649     A.U. after   21 cycles
             Convg  =    0.9320D-08             -V/T =  2.0039
 <Sx>= 0.0000 <Sy>= 0.0000 <Sz>= 0.5000 <S**2>= 0.7793 S= 0.5145
 <L.S>= 0.000000000000E+00
 SMD-CDS (non-electrostatic) energy             (kcal/mol) =       3.81
 (included in total energy above)
 Annihilation of the first spin contaminant:
 S**2 before annihilation     0.7793,   after     0.7505
 D1PCM: PCM CHGder 1st derivatives, ID1Alg=3 FixD1E=F DoIter=F DoCFld=F I1PDM=0.
 Calling FoFJK, ICntrl=      2127 FMM=F ISym2X=0 I1Cent= 0 IOpClX= 1 NMat=1 NMatS=1 NMatT=0.
 ***** Axes restored to original set *****
 -------------------------------------------------------------------
 Center     Atomic                   Forces (Hartrees/Bohr)
 Number     Number              X              Y              Z
 -------------------------------------------------------------------
      1        6           0.000442130    0.002022585    0.000059324
      2        6           0.003523242    0.000488768    0.000133175
      3        6           0.001904198   -0.004330353   -0.000010302
      4        6          -0.001927031    0.000766183   -0.000010859
      5        6           0.000549073    0.005131537    0.000058161
      6        6           0.000506121   -0.001481027   -0.000061049
      7        8          -0.001093089    0.000951466   -0.000015630
      8        7          -0.003147342   -0.002038526   -0.000114814
      9        1           0.000926624   -0.000933583    0.000011475
     10        1           0.000743146    0.000441813    0.000013972
     11        1           0.000026959    0.000513530   -0.000004461
     12        1          -0.000915437   -0.000120512   -0.000020520
     13        1          -0.001289042    0.000746699   -0.000021986
     14        1          -0.000003727   -0.001728186   -0.000021823
     15        1          -0.000245823   -0.000430394    0.000005337
 -------------------------------------------------------------------
 Cartesian Forces:  Max     0.005131537 RMS     0.001475368

 GradGradGradGradGradGradGradGradGradGradGradGradGradGradGradGradGradGrad
 Berny optimization.
 Using GEDIIS/GDIIS optimizer.
 Internal  Forces:  Max     0.005331711 RMS     0.001211033
 Search for a local minimum.
 Step number   2 out of a maximum of   77
 All quantities printed in internal units (Hartrees-Bohrs-Radians)
 Mixed Optimization -- RFO/linear search
 Update second derivatives using D2CorX and points    1    2
 DE= -8.62D-03 DEPred=-8.59D-03 R= 1.00D+00
 SS=  1.41D+00  RLast= 2.11D-01 DXNew= 5.0454D-01 6.3239D-01
 Trust test= 1.00D+00 RLast= 2.11D-01 DXMaxT set to 5.05D-01
 Use linear search instead of GDIIS.
     Eigenvalues ---    0.00671   0.01154   0.01283   0.01383   0.01545
     Eigenvalues ---    0.01599   0.01791   0.02272   0.02364   0.02499
     Eigenvalues ---    0.02710   0.03030   0.10364   0.10808   0.11368
     Eigenvalues ---    0.11637   0.12188   0.12492   0.14172   0.16241
     Eigenvalues ---    0.18495   0.19166   0.19974   0.21404   0.32101
     Eigenvalues ---    0.35652   0.38196   0.38582   0.38917   0.39614
     Eigenvalues ---    0.40269   0.41531   0.45299   0.48521   0.50578
     Eigenvalues ---    0.50919   0.51743   0.52039   0.550631000.00000
     Eigenvalues --- 1000.000001000.000001000.000001000.000001000.00000
     Eigenvalues --- 1000.000001000.000001000.000001000.000001000.00000
     Eigenvalues --- 1000.000001000.000001000.000001000.000001000.00000
     Eigenvalues --- 1000.000001000.000001000.000001000.000001000.00000
     Eigenvalues --- 1000.000001000.000001000.000001000.000001000.00000
     Eigenvalues --- 1000.000001000.00000
 RFO step:  Lambda=-2.51926582D-04 EMin= 6.71460513D-03
 Quartic linear search produced a step of  0.03271.
 Iteration  1 RMS(Cart)=  0.00714256 RMS(Int)=  0.00004349
 Iteration  2 RMS(Cart)=  0.00004119 RMS(Int)=  0.00000107
 Iteration  3 RMS(Cart)=  0.00000000 RMS(Int)=  0.00000107
 Variable       Old X    -DE/DX   Delta X   Delta X   Delta X     New X
                                 (Linear)    (Quad)   (Total)
    R1        2.68549   0.00430   0.00235   0.00738   0.00974   2.69523
    R2        2.63269   0.00256   0.00083   0.00434   0.00517   2.63786
    R3        2.04447   0.00086   0.00091   0.00174   0.00266   2.04713
    R4        2.70841   0.00442   0.00229   0.00688   0.00917   2.71758
    R5        2.67944   0.00213   0.00137   0.00247   0.00384   2.68328
    R6        2.48959   0.00533  -0.00296   0.01434   0.01138   2.50097
    R7        2.58287   0.00091  -0.00073   0.00240   0.00167   2.58454
[...]
 ! A4    A(5,2,6)              120.8546         -DE/DX =    0.0                 !
 ! A5    A(5,2,8)              118.6533         -DE/DX =    0.0                 !
 ! A6    A(6,2,8)              120.4921         -DE/DX =    0.0                 !
 ! A7    A(1,3,6)              120.8129         -DE/DX =    0.0                 !
 ! A8    A(1,3,7)              115.3574         -DE/DX =    0.0                 !
 ! A9    A(6,3,7)              123.8297         -DE/DX =    0.0                 !
 ! A10   A(1,4,5)              120.0617         -DE/DX =    0.0                 !
 ! A11   A(1,4,11)             119.5974         -DE/DX =    0.0                 !
 ! A12   A(5,4,11)             120.3409         -DE/DX =    0.0                 !
 ! A13   A(2,5,4)              119.2393         -DE/DX =    0.0                 !
 ! A14   A(2,5,12)             118.6017         -DE/DX =    0.0                 !
 ! A15   A(4,5,12)             122.159          -DE/DX =    0.0                 !
 ! A16   A(2,6,3)              118.456          -DE/DX =    0.0                 !
 ! A17   A(2,6,15)             120.0524         -DE/DX =    0.0                 !
 ! A18   A(3,6,15)             121.4917         -DE/DX =    0.0                 !
 ! A19   A(3,7,9)              110.8432         -DE/DX =    0.0                 !
 ! A20   A(2,8,13)             120.7162         -DE/DX =    0.0                 !
 ! A21   A(2,8,14)             121.0544         -DE/DX =    0.0                 !
 ! A22   A(13,8,14)            118.2294         -DE/DX =    0.0                 !
 ! D1    D(4,1,3,6)              0.0            -DE/DX =    0.0                 !
 ! D2    D(4,1,3,7)            179.9999         -DE/DX =    0.0                 !
 ! D3    D(10,1,3,6)           180.0            -DE/DX =    0.0                 !
 ! D4    D(10,1,3,7)             0.0            -DE/DX =    0.0                 !
 ! D5    D(3,1,4,5)             -0.0001         -DE/DX =    0.0                 !
 ! D6    D(3,1,4,11)          -180.0            -DE/DX =    0.0                 !
 ! D7    D(10,1,4,5)          -180.0001         -DE/DX =    0.0                 !
 ! D8    D(10,1,4,11)           -0.0001         -DE/DX =    0.0                 !
 ! D9    D(6,2,5,4)              0.0001         -DE/DX =    0.0                 !
 ! D10   D(6,2,5,12)           180.0002         -DE/DX =    0.0                 !
 ! D11   D(8,2,5,4)            180.0002         -DE/DX =    0.0                 !
 ! D12   D(8,2,5,12)             0.0003         -DE/DX =    0.0                 !
 ! D13   D(5,2,6,3)             -0.0002         -DE/DX =    0.0                 !
 ! D14   D(5,2,6,15)          -180.0002         -DE/DX =    0.0                 !
 ! D15   D(8,2,6,3)           -180.0003         -DE/DX =    0.0                 !
 ! D16   D(8,2,6,15)            -0.0003         -DE/DX =    0.0                 !
 ! D17   D(5,2,8,13)             0.0            -DE/DX =    0.0                 !
 ! D18   D(5,2,8,14)          -180.0001         -DE/DX =    0.0                 !
 ! D19   D(6,2,8,13)          -179.9999         -DE/DX =    0.0                 !
 ! D20   D(6,2,8,14)             0.0            -DE/DX =    0.0                 !
 ! D21   D(1,3,6,2)              0.0002         -DE/DX =    0.0                 !
 ! D22   D(1,3,6,15)          -179.9999         -DE/DX =    0.0                 !
 ! D23   D(7,3,6,2)            180.0002         -DE/DX =    0.0                 !
 ! D24   D(7,3,6,15)             0.0002         -DE/DX =    0.0                 !
 ! D25   D(1,3,7,9)           -179.9993         -DE/DX =    0.0                 !
 ! D26   D(6,3,7,9)              0.0007         -DE/DX =    0.0                 !
 ! D27   D(1,4,5,2)              0.0            -DE/DX =    0.0                 !
 ! D28   D(1,4,5,12)           180.0            -DE/DX =    0.0                 !
 ! D29   D(11,4,5,2)           180.0            -DE/DX =    0.0                 !
 ! D30   D(11,4,5,12)           -0.0001         -DE/DX =    0.0                 !
 --------------------------------------------------------------------------------
 GradGradGradGradGradGradGradGradGradGradGradGradGradGradGradGradGradGrad

 1\1\GINC-NODE60\Freq\UM062X\6-311++G(d,p)\C6H7N1O1(1+,2)\XIAO53\22-Jan
 -2016\0\\#N Geom=AllCheck Guess=TCheck SCRF=Check GenChk UM062X/6-311+
 +G(d,p) Freq\\aminophenol\\1,2\C,1.2251843233,1.0725376731,0.027682495
 8\C,-1.1968069519,-0.2801123975,-0.0497566019\C,1.1965947205,-0.354034
 8606,0.0071420093\C,0.0381454169,1.8068940594,0.0091714918\C,-1.171077
 9735,1.1584009243,-0.029118259\C,0.0086421546,-1.0303909559,-0.0310180
 656\O,2.4015085011,-0.9554553023,0.0279338509\N,-2.367763828,-0.892740
 3983,-0.0866251573\H,2.3060622858,-1.9182328007,0.0122174889\H,2.18887
 06128,1.566113883,0.0578719736\H,0.0782806386,2.8879989949,0.025184893
 6\H,-2.1127445196,1.6943414112,-0.0444510066\H,-3.231591304,-0.3597640
 485,-0.1001199944\H,-2.4283867386,-1.9055661499,-0.102186395\H,-0.0259
 17338,-2.1139900319,-0.046928724\\Version=EM64L-G09RevA.02\State=2-A\H
 F=-362.5967786\S2=0.779583\S2-1=0.\S2A=0.75049\RMSD=7.200e-09\RMSF=1.9
 85e-05\ZeroPoint=0.1215798\Thermal=0.1284055\Dipole=-2.381456,-0.95975
 77,-0.0710048\DipoleDeriv=0.6078307,-0.0127118,0.0151345,0.7033429,0.4
 45969,0.0233509,0.0259481,0.0059792,-0.0205739,1.7049323,0.3779039,0.0
 399978,-0.3401223,0.3003534,-0.0076538,0.0293522,0.0096954,0.2713475,2
 .2032904,-0.6222516,0.0393864,-1.9338699,0.0009983,-0.049426,0.0205889
 ,-0.017694,0.2053045,-0.9905365,0.1448654,-0.0180775,0.1122782,0.12104
 8,0.0067201,-0.019586,0.0077545,-0.1672277,0.605651,0.1325067,0.018997
 2,0.4056907,-0.1463701,0.0091707,0.0238755,0.0023379,-0.0982946,-1.047
 4164,0.1445089,-0.0164108,0.2368723,-0.0722461,0.0086654,-0.0142009,0.
 0061535,-0.2798598,-2.2289495,0.3689199,-0.0363849,1.4263233,-0.614009
 ,0.0328442,-0.0219756,0.0073953,-0.5037352,-1.6089231,-0.5431276,-0.03
 42613,-0.5365483,-0.6037864,-0.0143904,-0.0343372,-0.0144461,-0.509535
 4,0.3574216,-0.1282594,-0.0044069,-0.2214953,0.4461256,-0.0056748,-0.0
 057057,-0.0033828,0.4657091,0.0843481,-0.0102434,-0.0024359,-0.0254104
 ,0.1203212,-0.0014338,-0.0026534,-0.0010904,0.1810718,0.1603712,0.0126
 923,-0.0006862,-0.0091253,0.0380178,-0.0023757,-0.0009165,-0.0019075,0
 .1956022,0.0851795,0.0070254,-0.002791,0.0237608,0.1194361,-0.0005228,
 -0.0025684,-0.0009569,0.2013384,0.6639456,0.0632417,0.007061,-0.216316
 7,0.1945083,-0.0082197,0.0031924,-0.0014437,0.4083594,0.2823014,0.0583
 589,-0.0022495,0.334109,0.550502,0.0100614,0.0016504,0.0033958,0.40786
 89,0.1205536,0.0065708,-0.0028729,0.0405109,0.099132,-0.0011157,-0.002
 6637,-0.0017903,0.2426249\Polar=187.1514745,26.6563868,125.9699364,3.5
 241944,1.6022526,57.1992786\PG=C01 [X(C6H7N1O1)]\NImag=0\\0.72232017,0
 .02644773,0.59634760,0.01492529,0.00729375,0.12061747,0.00765828,0.001
 79758,0.00021049,0.76046252,0.01127491,0.00600585,0.00032862,0.0524108
 9,0.65661629,0.00035983,0.00011005,-0.00024075,0.01549155,0.00832883,0
 .15120764,-0.11625663,0.00722453,-0.00124037,-0.07373854,0.01830742,-0
 .00132812,0.71540054,-0.04404653,-0.24005882,-0.00362454,-0.00653192,0
 .01751407,0.00024569,0.05311718,0.63752098,-0.00199716,-0.00237736,-0.
 05854128,-0.00162958,0.00085401,-0.00995291,0.01448987,0.00816815,0.14
 543210,-0.22945167,0.02914067,-0.00391457,-0.01053506,-0.02695206,-0.0
 0061775,0.02891395,0.06635663,0.00168520,0.59143471,0.13009240,-0.1960
 7445,0.00110413,-0.03565806,-0.02050663,-0.00112431,0.02908225,-0.0198
 5427,0.00048699,0.02717013,0.76897115,-0.00251949,-0.00137431,-0.04965
 924,-0.00070902,-0.00087512,-0.00151729,0.00112262,0.00142449,-0.00377
 575,0.01180196,0.00973159,0.11778802,-0.08145087,0.03365536,-0.0015321
 4,-0.10541388,0.03395865,-0.00056793,-0.00703032,-0.01988706,-0.000510
 91,-0.29385519,-0.14571722,-0.00791044,0.77377964,-0.02459089,0.049332
 90,0.00008701,0.01670943,-0.26100761,-0.00236647,-0.02227070,-0.025118
 96,-0.00093731,-0.07336224,-0.19423289,-0.00378772,-0.00855363,0.62257
 762,-0.00235060,0.00153773,0.00043773,-0.00082545,-0.00199076,-0.06195
 768,-0.00048771,-0.00091660,0.00329147,-0.00687420,-0.00554551,-0.0499
 9776,0.01572611,0.00681564,0.11848668,0.01213426,-0.03880278,-0.000253
 36,-0.20313996,0.07055509,-0.00263260,-0.30675556,-0.11502361,-0.00777
 700,-0.02534187,0.00147106,-0.00072586,0.01466761,0.03366959,0.0007857
 2,0.71636496,-0.02812583,-0.02924973,-0.00108902,0.10663281,-0.1867600
 1,0.00072880,-0.15737443,-0.20449361,-0.00593885,-0.00247259,-0.000566
 97,-0.00014851,0.02645047,-0.01963276,0.00034935,0.05083312,0.75987231
 ,-0.00009643,-0.00129818,-0.00091351,-0.00215579,-0.00019014,-0.053077
 72,-0.00832594,-0.00496423,-0.05068811,-0.00077499,-0.00007735,0.00700
 726,0.00069953,0.00054313,0.00008755,0.01560380,0.01040160,0.09999988,
 -0.00771458,0.03381277,0.00012599,0.01944072,-0.02885290,-0.00016745,-
 0.25509213,0.02910310,-0.00457202,0.00795852,-0.00099576,0.00015912,-0
 .00462606,0.00778494,-0.00003599,-0.07271683,0.03031355,-0.00167611,0.
 37135132,0.05599684,-0.05062395,0.00061002,-0.01282866,0.01179198,-0.0
 0031576,0.08561691,-0.12817266,0.00092976,-0.01295216,-0.00718378,-0.0
 0048932,0.00347720,-0.00192294,0.00010209,0.00224603,0.01098684,0.0000
 7108,-0.03635887,0.66452591,0.00048043,0.00004624,0.00469631,0.0000258
 3,-0.00068553,0.01098900,-0.00382971,-0.00041302,-0.04783495,-0.000067
 05,-0.00016865,0.00318018,-0.00003847,0.00017585,-0.00098513,-0.002013
 38,0.00072204,0.01178934,0.00771170,0.00792657,0.03221836,-0.00979048,
 0.00342676,-0.00015778,-0.37748444,-0.13611085,-0.00992709,0.01631461,
 0.00619328,0.00035876,0.01400899,0.00430624,0.00031125,-0.01200538,-0.
 02890857,-0.00084216,-0.07663894,-0.01335851,-0.00225514,-0.01205297,0
 .00555068,-0.00019748,0.86077522,-0.00133874,-0.00573720,-0.00008742,-
 0.12791450,-0.20794312,-0.00535963,0.00650163,-0.00018421,0.00007835,0
 .00157582,-0.00614729,-0.00010700,-0.04866635,-0.03409910,-0.00172892,
 0.01005354,0.02160792,0.00042905,0.00289741,-0.00009035,0.00007818,0.0
 0449238,0.85359892,-0.00022979,0.00000314,-0.00079771,-0.00980493,-0.0
 0553968,-0.04626141,0.00036042,0.00009182,0.00458421,0.00027406,-0.000
 02149,0.00301051,-0.00112468,-0.00126785,0.00669731,-0.00193593,-0.000
 15076,0.00936702,-0.00022269,0.00013697,-0.00072948,0.01958378,0.01122
 814,0.05486616,-0.00554349,0.00261337,-0.00016916,-0.00036367,-0.00038
 992,0.00001263,-0.00279189,0.04799898,0.00063848,0.00109202,0.00128878
 ,0.00002210,0.00025508,-0.00023707,0.00000231,-0.00319467,0.00481461,0
 .00002748,-0.05304721,-0.08953182,-0.00238179,0.00042996,-0.00002757,0
 .00000757,0.06548257,0.00176528,0.00381575,0.00006365,0.00211825,-0.00
 353362,0.00001195,0.00486743,-0.02329878,-0.00019327,0.00051259,-0.000
 18687,-0.00001381,-0.00042992,0.00092147,0.00001236,-0.00356991,0.0018
 4026,-0.00002915,-0.03992218,-0.50123603,-0.00786026,-0.00176619,0.000
 28190,-0.00004199,0.03467698,0.52163394,-0.00017897,0.00007604,0.00287
 619,0.00004650,-0.00004335,-0.00106752,0.00003592,0.00085799,-0.001482
 26,0.00000814,0.00001506,0.00100875,0.00000213,0.00000776,-0.00006871,
 -0.00008698,0.00016522,-0.00164102,-0.00169081,-0.00906099,-0.00631195
 ,-0.00001699,0.00000156,0.00011955,0.00189684,0.00800421,0.00722463,-0
 .28692682,-0.12009140,-0.00773027,-0.00004508,0.00008124,0.00003487,0.
 00327058,0.00227120,-0.00004400,-0.01459687,-0.01250683,-0.00069358,-0
 .00239412,0.00344931,-0.00018300,0.00064837,0.00100663,-0.00007895,0.0
 0076651,-0.00007146,0.00006103,0.00032821,0.00003831,0.00001366,0.0001
 0938,-0.00000744,0.00001080,0.29806445,-0.11934605,-0.12136219,-0.0040
 6716,0.00094505,-0.00116417,0.00002599,-0.02710263,-0.00950548,-0.0008
 7823,0.01592128,0.01288530,0.00046730,0.00397593,-0.00123859,-0.000018
 47,0.00106682,-0.00554305,-0.00011225,-0.00076225,0.00270998,0.0000442
 5,-0.00001708,0.00041763,0.00000785,-0.00001131,0.00028037,0.00000827,
 0.12658384,0.12158631,-0.00771078,-0.00407705,-0.03724675,0.00003970,-
 0.00000042,-0.00112950,-0.00046049,-0.00017350,0.00679840,-0.00030922,
 -0.00022797,0.00748756,-0.00016141,-0.00002444,0.00649313,-0.00006599,
 -0.00010788,0.00393541,0.00004886,0.00006167,-0.00176704,0.00000939,0.
 00000819,-0.00006059,0.00001047,0.00000847,-0.00033239,0.00846645,0.00
 446302,0.02123282,0.00410602,0.02816963,0.00042123,-0.00503612,-0.0010
 9316,-0.00036851,-0.00414478,0.00131108,-0.00026283,-0.05784263,-0.011
 03466,-0.00058627,0.00313080,-0.02867038,-0.00042164,-0.00019964,-0.00
 006279,0.00003811,0.00014567,0.00172852,0.00002742,0.00046426,-0.00173
 172,-0.00000839,-0.00030224,0.00012751,-0.00000170,0.00108296,-0.00079
 002,0.00010310,0.05761777,-0.00238213,-0.00924795,-0.00023350,-0.00131
 327,0.00084275,-0.00014837,0.00162644,0.00108291,-0.00004317,-0.010292
 46,-0.34980231,-0.00455121,0.00120456,-0.00799999,-0.00014724,-0.00010
 296,0.00049194,0.00002162,-0.00003317,-0.00074963,-0.00001085,-0.00026
 751,-0.00063453,-0.00001105,0.00010847,0.00002083,0.00000506,-0.000239
 52,0.00070207,0.00005420,0.01145788,0.36464753,-0.00000524,0.00051342,
 0.00293933,-0.00037160,-0.00014923,0.00952480,-0.00025360,-0.00005893,
 0.00742883,-0.00057394,-0.00457774,-0.04008386,-0.00000770,-0.00086211
 ,0.00409344,0.00003460,0.00002896,-0.00176960,-0.00000008,0.00003302,0
 .00000403,0.00001312,-0.00004714,-0.00018998,-0.00000210,0.00000620,-0
 .00015708,0.00011025,0.00004089,-0.00362823,0.00088858,0.00496789,0.02
 758499,-0.00322769,-0.00295295,-0.00029924,0.00480045,-0.00445128,-0.0
 0001215,-0.00006219,-0.00030544,0.00001397,-0.01380896,0.01416916,-0.0
 0032698,-0.27527354,0.12546306,-0.00407601,0.00040086,-0.00144086,-0.0
 0007731,0.00015543,0.00009745,0.00001019,0.00022928,-0.00194254,0.0000
 0583,-0.00004120,0.00002154,-0.00000001,-0.00062837,0.00080224,0.00002
 071,0.00109394,0.00020844,0.00014763,0.28530960,-0.00349979,-0.0017432
 2,-0.00022706,0.02574134,-0.01192617,0.00042865,-0.00096278,-0.0003307
 8,-0.00000300,-0.01550249,0.01309926,-0.00028351,0.12411023,-0.1293502
 0,0.00166913,-0.00156618,-0.00481667,-0.00016023,0.00043115,0.00008528
 ,0.00001536,0.00253266,0.00144786,0.00010062,-0.00010617,0.00006363,-0
 .00000131,-0.00071503,0.00057900,0.00000445,0.00069472,0.00061971,0.00
 009237,-0.13127913,0.13414303,-0.00031752,-0.00020993,0.00796168,0.000
 41709,-0.00030322,0.00239329,0.00001099,0.00000865,-0.00131136,-0.0007
 2839,0.00042682,0.00715392,-0.00410859,0.00170994,-0.03414201,-0.00009
 115,-0.00014715,0.00337919,0.00002002,0.00000443,-0.00023785,0.0000702
 1,-0.00001073,-0.00125521,-0.00000153,0.00000107,-0.00002861,0.0000005
 1,0.00004195,-0.00100243,0.00015346,0.00008164,-0.00484294,0.00456646,
 -0.00160370,0.02119177,-0.00057772,-0.00201920,-0.00004277,-0.02345752
 ,0.01712046,-0.00030303,-0.00148898,0.00501325,-0.00000941,0.00156358,
 -0.00023939,0.00003356,0.00000455,-0.00105567,0.00009419,-0.00002788,-
 0.00376403,-0.00022190,0.00190321,-0.00207869,0.00004537,-0.33451645,0
 .16612213,-0.00547661,0.00006636,0.00026852,0.00000123,0.00001688,-0.0
 0005153,0.00000065,0.00007671,0.00011616,-0.00000103,0.00056017,-0.001
 01581,-0.00000548,0.34603618,-0.00005119,0.00173807,0.00002258,-0.0151
 4869,0.01421387,-0.00015375,0.00060931,-0.00172401,-0.00003401,0.00025
 676,0.00004034,0.00000621,-0.00324949,0.00142171,0.00000355,-0.0039147
 7,-0.00167530,-0.00021512,-0.00201765,0.00122177,-0.00001566,0.1703442
 0,-0.18121676,0.00178000,0.00004259,-0.00029514,-0.00000539,0.00005631
 ,-0.00004282,0.00000130,0.00003591,-0.00006493,-0.00000260,0.00171697,
 -0.00164111,0.00001597,-0.17385358,0.17267981,-0.00001788,-0.00002534,
 0.00010995,-0.00075068,0.00062767,-0.00115836,-0.00006807,0.00007311,0
 .00170196,0.00004401,-0.00000434,-0.00006188,0.00006077,0.00005520,-0.
 00438975,-0.00022662,-0.00021283,0.00706071,0.00004567,-0.00001673,-0.
 00116706,-0.00541739,0.00167823,-0.01291444,-0.00000188,0.00000010,0.0
 0016801,0.00000184,-0.00000145,-0.00003687,-0.00000228,-0.00000087,0.0
 0019172,0.00003295,-0.00005021,0.00019326,0.00567214,-0.00196977,0.011
 89529,0.00023694,-0.00070204,-0.00000250,0.00336868,-0.03291512,-0.000
 41826,-0.00004778,0.00105122,0.00003210,0.00023354,-0.00145903,-0.0000
 2011,-0.00460796,-0.00070382,-0.00029410,0.00067140,-0.00162320,0.0000
 9048,0.00051273,-0.00027863,-0.00000309,-0.07224132,-0.01157345,-0.001
 56102,-0.00006896,0.00005739,0.00000037,-0.00002280,0.00008061,-0.0000
 0267,-0.00035257,-0.00008165,0.00000443,0.00013672,-0.00010249,0.00000
 808,0.00972003,0.02524864,0.00061211,0.06266505,-0.00047432,-0.0026079
 2,-0.00004610,-0.00441766,-0.00498939,-0.00020078,-0.00144067,0.004461
 34,0.00003710,0.00143796,-0.00071004,0.00002079,-0.00236990,-0.0006740
 5,-0.00016491,0.00278473,0.00153588,0.00014537,0.00288212,-0.00229960,
 0.00003113,-0.01539635,-0.44271161,-0.00633285,0.00001672,0.00042395,0
 .00000694,-0.00002235,0.00000524,-0.00000229,-0.00011603,0.00011919,0.
 00000698,0.00004847,0.00012637,0.00000630,-0.00451575,-0.00483601,-0.0
 0016197,0.02183908,0.45227223,-0.00000500,-0.00005293,0.00012216,-0.00
 001866,-0.00088994,0.00159178,0.00000382,0.00009917,-0.00094298,0.0000
 2823,-0.00004521,-0.00000449,-0.00032358,-0.00012897,0.00734422,0.0001
 4560,0.00003455,-0.00378718,0.00003937,-0.00004432,0.00047187,-0.00161
 299,-0.00623908,-0.01457215,-0.00000026,0.00000819,-0.00005069,-0.0000
 0482,-0.00000019,0.00013802,0.00000362,0.00000729,-0.00056765,0.000011
 05,0.00000280,-0.00027193,0.00019795,0.00055857,-0.00103815,0.00154971
 ,0.00666626,0.01133847,-0.00551571,-0.00172003,-0.00034084,0.00348362,
 0.02705664,0.00044401,0.00350913,-0.02662136,-0.00041546,0.00022693,0.
 00003092,0.00004113,-0.00518036,0.00127663,-0.00021746,-0.05687210,-0.
 01182893,-0.00079685,0.00301568,-0.00061333,0.00016900,0.00217944,0.00
 151364,0.00011871,-0.00208205,0.00128017,-0.00002647,0.00032673,-0.001
 29491,0.00001124,0.00015985,-0.00000928,0.00001667,0.00035551,0.001239
 78,0.00000585,0.00012089,-0.00007531,0.00001531,-0.00020368,-0.0002560
 5,-0.00001404,0.05647612,-0.00172169,-0.00053473,-0.00013496,-0.002542
 58,-0.00915409,-0.00021088,0.00219812,-0.00783772,-0.00014917,-0.00083
 783,0.00026945,-0.00001986,0.00204117,0.00102338,0.00002259,-0.0096997
 7,-0.34359704,-0.00456520,0.00171773,0.00095718,0.00011435,-0.00102112
 ,0.00140994,0.00001712,-0.00125662,-0.00073166,-0.00003707,0.00016718,
 -0.00030960,0.00001225,-0.00002650,-0.00002761,0.00000802,-0.00015513,
 -0.00035599,-0.00002205,-0.00004687,0.00018051,0.00000918,0.00116248,-
 0.00011558,0.00002379,0.01002142,0.35882357,-0.00033668,-0.00016527,0.
 00763841,0.00003454,0.00052825,0.00065663,-0.00002963,-0.00081824,0.00
 529263,0.00001851,0.00002798,-0.00153592,-0.00020268,-0.00001966,0.004
 60949,-0.00076086,-0.00463552,-0.03074921,0.00021441,0.00005151,-0.004
 31562,0.00008051,0.00007823,-0.00186380,-0.00006116,0.00002228,-0.0002
 5690,0.00003522,-0.00002177,-0.00088154,0.00001610,0.00000855,-0.00052
 780,-0.00001706,0.00001566,0.00081923,0.00001513,0.00000811,-0.0005543
 9,0.00000446,-0.00001198,0.00022869,0.00098920,0.00493188,0.02144011\\
 0.00000769,-0.00000995,0.00000007,-0.00007042,-0.00003354,-0.00000212,
 -0.00001180,-0.00000737,-0.00000034,0.00001366,0.00000322,0.00000042,0
 .00000533,0.00000287,0.00000006,-0.00001723,0.00000382,-0.00000035,0.0
 0000158,-0.00002254,-0.00000024,0.00005800,0.00005783,0.00000216,-0.00
 000012,-0.00002755,-0.00000054,0.00001416,-0.00001726,0.00000007,0.000
 02233,-0.00000188,0.00000048,0.00001101,0.00001241,0.00000052,-0.00000
 336,0.00002858,0.00000029,-0.00001308,0.00001327,-0.00000014,-0.000017
 75,-0.00000191,-0.00000034\\\@


 SIGN SEEN IN A RESTAURANT-
 WE RESERVE THE RIGHT TO SERVE REFUSE TO ANYONE.
 Job cpu time:  0 days  2 hours 22 minutes 27.7 seconds.
 File lengths (MBytes):  RWF=    246 Int=      0 D2E=      0 Chk=     12 Scr=      1
 Normal termination of Gaussian 09 at Fri Jan 22 06:30:59 2016.

g09 job started: Fri Jan 22 05:40:06 CST 2016
g09 job finished: Fri Jan 22 06:30:59 CST 2016
Elapsed time: 3053
