 Entering Gaussian System, Link 0=g09
 Initial command:
 /public/software/g09/l1.exe /tmp/Gau-6895.inp -scrdir=/tmp/
 Entering Link 1 = /public/software/g09/l1.exe PID=      6896.
  
 Copyright (c) 1988,1990,1992,1993,1995,1998,2003,2009, Gaussian, Inc.
                  All Rights Reserved.
  
 This is part of the Gaussian(R) 09 program.  It is based on
 the Gaussian(R) 03 system (copyright 2003, Gaussian, Inc.),
 the Gaussian(R) 98 system (copyright 1998, Gaussian, Inc.),
 the Gaussian(R) 94 system (copyright 1995, Gaussian, Inc.),
 the Gaussian 92(TM) system (copyright 1992, Gaussian, Inc.),
 the Gaussian 90(TM) system (copyright 1990, Gaussian, Inc.),
 the Gaussian 88(TM) system (copyright 1988, Gaussian, Inc.),
 the Gaussian 86(TM) system (copyright 1986, Carnegie Mellon
 University), and the Gaussian 82(TM) system (copyright 1983,
 Carnegie Mellon University). Gaussian is a federally registered
 trademark of Gaussian, Inc.
  
 This software contains proprietary and confidential information,
 including trade secrets, belonging to Gaussian, Inc.
  
 This software is provided under written license and may be
 used, copied, transmitted, or stored only in accord with that
 written license.
  
 The following legend is applicable only to US Government
 contracts under FAR:
  
                    RESTRICTED RIGHTS LEGEND
  
 Use, reproduction and disclosure by the US Government is
 subject to restrictions as set forth in subparagraphs (a)
 and (c) of the Commercial Computer Software - Restricted
 Rights clause in FAR 52.227-19.
  
 Gaussian, Inc.
 340 Quinnipiac St., Bldg. 40, Wallingford CT 06492
  
  
 ---------------------------------------------------------------
 Warning -- This program may not be used in any manner that
 competes with the business of Gaussian, Inc. or will provide
 assistance to any competitor of Gaussian, Inc.  The licensee
 of this program is prohibited from giving any competitor of
 Gaussian, Inc. access to this program.  By using this program,
 the user acknowledges that Gaussian, Inc. is engaged in the
 business of creating and licensing software in the field of
 computational chemistry and represents and warrants to the
 licensee that it is not a competitor of Gaussian, Inc. and that
 it will not use this program in any manner prohibited above.
 ---------------------------------------------------------------
  

 Cite this work as:
 Gaussian 09, Revision A.02,
 M. J. Frisch, G. W. Trucks, H. B. Schlegel, G. E. Scuseria, 
 M. A. Robb, J. R. Cheeseman, G. Scalmani, V. Barone, B. Mennucci, 
 G. A. Petersson, H. Nakatsuji, M. Caricato, X. Li, H. P. Hratchian, 
 A. F. Izmaylov, J. Bloino, G. Zheng, J. L. Sonnenberg, M. Hada, 
 M. Ehara, K. Toyota, R. Fukuda, J. Hasegawa, M. Ishida, T. Nakajima, 
 Y. Honda, O. Kitao, H. Nakai, T. Vreven, J. A. Montgomery, Jr., 
 J. E. Peralta, F. Ogliaro, M. Bearpark, J. J. Heyd, E. Brothers, 
 K. N. Kudin, V. N. Staroverov, R. Kobayashi, J. Normand, 
 K. Raghavachari, A. Rendell, J. C. Burant, S. S. Iyengar, J. Tomasi, 
 M. Cossi, N. Rega, J. M. Millam, M. Klene, J. E. Knox, J. B. Cross, 
 V. Bakken, C. Adamo, J. Jaramillo, R. Gomperts, R. E. Stratmann, 
 O. Yazyev, A. J. Austin, R. Cammi, C. Pomelli, J. W. Ochterski, 
 R. L. Martin, K. Morokuma, V. G. Zakrzewski, G. A. Voth, 
 P. Salvador, J. J. Dannenberg, S. Dapprich, A. D. Daniels, 
 O. Farkas, J. B. Foresman, J. V. Ortiz, J. Cioslowski, 
 and D. J. Fox, Gaussian, Inc., Wallingford CT, 2009.
 
 ******************************************
 Gaussian 09:  EM64L-G09RevA.02 11-Jun-2009
                 9-Oct-2015 
 ******************************************
 %nprocshared=4
 Will use up to    4 processors via shared memory.
 %mem=4GB
 %chk=SO4-_product.chk
 --------------------------------------------------------------
 # opt=calcfc freq 6-311++g(d,p) scrf=(smd,solvent=water) m062x
 --------------------------------------------------------------
 1/10=4,14=-1,18=20,19=15,26=3,38=1/1,3;
 2/9=110,12=2,17=6,18=5,40=1/2;
 3/5=4,6=6,7=1111,11=2,16=1,25=1,30=1,70=32201,71=2,72=1,74=-55/1,2,3;
 4//1;
 5/5=2,38=5,53=1/2;
 8/6=4,10=90,11=11/1;
 11/6=1,8=1,9=11,15=111,16=1/1,2,10;
 10/6=1,7=6,13=1/2;
 6/7=2,8=2,9=2,10=2,28=1/1;
 7/10=1,18=20,25=1/1,2,3,16;
 1/10=4,14=-1,18=20,19=15/3(2);
 2/9=110/2;
 99//99;
 2/9=110/2;
 3/5=4,6=6,7=1111,11=2,16=1,25=1,30=1,70=32205,71=1,72=1,74=-55/1,2,3;
 4/5=5,16=3/1;
 5/5=2,38=5,53=1/2;
 7//1,2,3,16;
 1/14=-1,18=20,19=15/3(-5);
 2/9=110/2;
 6/7=2,8=2,9=2,10=2,19=2,28=1/1;
 99/9=1/99;
 ---------------
 SO4-2_m_prodcut
 ---------------
 Symbolic Z-matrix:
 Charge = -2 Multiplicity = 1
 S                     0.08917  -0.00001  -0.00028 
 O                     0.88321   1.23232  -0.00019 
 O                     0.88363  -1.23203   0.00036 
 O                    -0.97271  -0.00044  -1.10577 
 O                    -0.97247   0.00017   1.10616 
 

 GradGradGradGradGradGradGradGradGradGradGradGradGradGradGradGradGradGrad
 Berny optimization.
 Initialization pass.
                           ----------------------------
                           !    Initial Parameters    !
                           ! (Angstroms and Degrees)  !
 --------------------------                            --------------------------
 ! Name  Definition              Value          Derivative Info.                !
 --------------------------------------------------------------------------------
 ! R1    R(1,2)                  1.466          calculate D2E/DX2 analytically  !
 ! R2    R(1,3)                  1.466          calculate D2E/DX2 analytically  !
 ! R3    R(1,4)                  1.5329         calculate D2E/DX2 analytically  !
 ! R4    R(1,5)                  1.5334         calculate D2E/DX2 analytically  !
 ! A1    A(2,1,3)              114.3888         calculate D2E/DX2 analytically  !
 ! A2    A(2,1,4)              112.0551         calculate D2E/DX2 analytically  !
 ! A3    A(2,1,5)              112.0158         calculate D2E/DX2 analytically  !
 ! A4    A(3,1,4)              112.0553         calculate D2E/DX2 analytically  !
 ! A5    A(3,1,5)              112.0239         calculate D2E/DX2 analytically  !
 ! A6    A(4,1,5)               92.3363         calculate D2E/DX2 analytically  !
 ! D1    D(2,1,4,3)            130.1545         calculate D2E/DX2 analytically  !
 ! D2    D(2,1,5,3)           -130.093          calculate D2E/DX2 analytically  !
 ! D3    D(2,1,5,4)            114.9525         calculate D2E/DX2 analytically  !
 ! D4    D(3,1,5,4)           -114.9545         calculate D2E/DX2 analytically  !
 --------------------------------------------------------------------------------
 Trust Radius=3.00D-01 FncErr=1.00D-07 GrdErr=1.00D-06
 Number of steps in this run=  24 maximum allowed number of steps= 100.
 GradGradGradGradGradGradGradGradGradGradGradGradGradGradGradGradGradGrad

                          Input orientation:                          
 ---------------------------------------------------------------------
 Center     Atomic      Atomic             Coordinates (Angstroms)
 Number     Number       Type             X           Y           Z
 ---------------------------------------------------------------------
      1         16           0        0.089171   -0.000009   -0.000279
      2          8           0        0.883212    1.232315   -0.000185
      3          8           0        0.883630   -1.232028    0.000358
      4          8           0       -0.972714   -0.000437   -1.105772
      5          8           0       -0.972470    0.000167    1.106157
 ---------------------------------------------------------------------
                    Distance matrix (angstroms):
                    1          2          3          4          5
     1  S    0.000000
     2  O    1.465989   0.000000
     3  O    1.465959   2.464343   0.000000
     4  O    1.532878   2.487260   2.487238   0.000000
     5  O    1.533389   2.487114   2.487208   2.211929   0.000000
 Stoichiometry    O4S(2-)
 Framework group  C1[X(O4S)]
 Deg. of freedom     9
 Full point group                 C1      NOp   1
 Largest Abelian subgroup         C1      NOp   1
 Largest concise Abelian subgroup C1      NOp   1
                         Standard orientation:                         
 ---------------------------------------------------------------------
 Center     Atomic      Atomic             Coordinates (Angstroms)
 Number     Number       Type             X           Y           Z
 ---------------------------------------------------------------------
      1         16           0        0.089171   -0.000009   -0.000279
      2          8           0        0.883211    1.232316   -0.000185
      3          8           0        0.883631   -1.232027    0.000358
      4          8           0       -0.972714   -0.000438   -1.105772
      5          8           0       -0.972470    0.000166    1.106157
 ---------------------------------------------------------------------
 Rotational constants (GHZ):      5.7627817      5.3417620      4.8571300
 Standard basis: 6-311++G(d,p) (5D, 7F)
 There are   118 symmetry adapted basis functions of A   symmetry.
 Integral buffers will be    131072 words long.
 Raffenetti 2 integral format.
 Two-electron integral symmetry is turned on.
   118 basis functions,   194 primitive gaussians,   123 cartesian basis functions
    25 alpha electrons       25 beta electrons
       nuclear repulsion energy       264.2908963554 Hartrees.
 NAtoms=    5 NActive=    5 NUniq=    5 SFac= 7.50D-01 NAtFMM=   80 NAOKFM=F Big=F
 ------------------------------------------------------------------------------
 Polarizable Continuum Model (PCM)
 =================================
 Model                : PCM.
 Atomic radii         : SMD-Coulomb.
 Polarization charges : Total charges.
 Charge compensation  : None.
 Solution method      : Matrix inversion.
 Cavity type          : VdW (van der Waals Surface) (Alpha=1.000).
 Cavity algorithm     : GePol (No added spheres)
                        Default sphere list used, NSphG=    5.
                        Lebedev-Laikov grids with approx.  5.0 points / Ang**2.
                        Smoothing algorithm: Karplus/York (Gamma=1.0000).
                        Polarization charges: spherical gaussians, with
                                              point-specific exponents (IZeta= 3).
                        Self-potential: point-specific (ISelfS= 7).
                        Self-field    : sphere-specific E.n sum rule (ISelfD= 2).
 1st derivatives      : Analytical E(r).r(x)/FMM algorithm (CHGder, D1EAlg=3).
                        Cavity 1st derivative terms included.
 2nd derivatives      : Analytical E(r).r(xy)/FMM algorithm (CHGder, D2EAlg=3).
                        Cavity 2nd derivative terms included.
 Solvent              : Water, Eps=  78.355300 Eps(inf)=   1.777849
 ------------------------------------------------------------------------------
 Spheres list:
 ISph  on   Nord    Re0     Alpha      Xe            Ye            Ze
    1   S      1    2.490   1.000      0.089171     -0.000009     -0.000279
    2   O      2    1.520   1.000      0.883211      1.232316     -0.000185
    3   O      3    1.520   1.000      0.883631     -1.232027      0.000358
    4   O      4    1.520   1.000     -0.972714     -0.000438     -1.105772
    5   O      5    1.520   1.000     -0.972470      0.000166      1.106157
 ------------------------------------------------------------------------------
 ------------------------------------------------------------------------------
 Atomic radii for non-electrostatic terms: SMD-CDS.
 ------------------------------------------------------------------------------
 Nuclear repulsion after PCM non-electrostatic terms =      264.2908168614 Hartrees.
 One-electron integrals computed using PRISM.
 NBasis=   118 RedAO= T  NBF=   118
 NBsUse=   118 1.00D-06 NBFU=   118
 Harris functional with IExCor= 1009 diagonalized for initial guess.
 ExpMin= 4.05D-02 ExpMax= 9.34D+04 ExpMxC= 3.17D+03 IAcc=2 IRadAn=         0 AccDes= 0.00D+00
 HarFok:  IExCor= 1009 AccDes= 0.00D+00 IRadAn=         0 IDoV= 1
 ScaDFX=  1.000000  1.000000  1.000000  1.000000
 FoFCou: FMM=F IPFlag=           0 FMFlag=      100000 FMFlg1=           0
         NFxFlg=           0 DoJE=T BraDBF=F KetDBF=T FulRan=T
         Omega=  0.000000  0.000000  1.000000  0.000000  0.000000 ICntrl=     500 IOpCl=  0
         NMat0=    1 NMatS0=    1 NMatT0=    0 NMatD0=    1 NMtDS0=    0 NMtDT0=    0
         I1Cent=           4 NGrid=           0.
 Petite list used in FoFCou.
 Initial guess orbital symmetries:
       Occupied  (A) (A) (A) (A) (A) (A) (A) (A) (A) (A) (A) (A)
                 (A) (A) (A) (A) (A) (A) (A) (A) (A) (A) (A) (A)
                 (A)
       Virtual   (A) (A) (A) (A) (A) (A) (A) (A) (A) (A) (A) (A)
                 (A) (A) (A) (A) (A) (A) (A) (A) (A) (A) (A) (A)
                 (A) (A) (A) (A) (A) (A) (A) (A) (A) (A) (A) (A)
                 (A) (A) (A) (A) (A) (A) (A) (A) (A) (A) (A) (A)
                 (A) (A) (A) (A) (A) (A) (A) (A) (A) (A) (A) (A)
                 (A) (A) (A) (A) (A) (A) (A) (A) (A) (A) (A) (A)
                 (A) (A) (A) (A) (A) (A) (A) (A) (A) (A) (A) (A)
                 (A) (A) (A) (A) (A) (A) (A) (A) (A)
 The electronic state of the initial guess is 1-A.
 Requested convergence on RMS density matrix=1.00D-08 within 128 cycles.
 Requested convergence on MAX density matrix=1.00D-06.
 Requested convergence on             energy=1.00D-06.
 No special actions if energy rises.
 Keep R1 ints in memory in canonical form, NReq=32549696.
 Error on total polarization charges =  0.05340
 SCF Done:  E(RM062X) =  -699.328391814     A.U. after   12 cycles
             Convg  =    0.3008D-08             -V/T =  2.0017
 SMD-CDS (non-electrostatic) energy             (kcal/mol) =      -0.05
 (included in total energy above)
 Range of M.O.s used for correlation:     1   118
 NBasis=   118 NAE=    25 NBE=    25 NFC=     0 NFV=     0
 NROrb=    118 NOA=    25 NOB=    25 NVA=    93 NVB=    93

 **** Warning!!: The largest alpha MO coefficient is  0.13603163D+02

 Symmetrizing basis deriv contribution to polar:
 IMax=3 JMax=2 DiffMx= 0.00D+00
 G2DrvN: will do     6 centers at a time, making    1 passes doing MaxLOS=2.
 Calling FoFCou, ICntrl=  3107 FMM=F I1Cent=   0 AccDes= 0.00D+00.
 FoFDir/FoFCou used for L=0 through L=2.
 G2PCM: DoFxE=T DoFxN=T DoGrad=T DoPD/DQ/DG=FFF NFrqRd=   0 IEInf=0 DoCFld=F IF1Alg=4.
 End of G2Drv Frequency-dependent properties file   721 does not exist.
 End of G2Drv Frequency-dependent properties file   722 does not exist.
          IDoAtm=11111
 NEqPCM:  Using equilibrium solvation (IEInf=0, Eps=  78.3553, EpsInf=   1.7778)
          Differentiating once with respect to nuclear coordinates.
          Keep R1 ints in memory in canonical form, NReq=29903741.
          There are    18 degrees of freedom in the 1st order CPHF.  IDoFFX=5.
     12 vectors produced by pass  0 Test12= 1.29D-10 5.56D-07 XBig12= 2.82D-01 1.61D-01.
 AX will form    12 AO Fock derivatives at one time.
     12 vectors produced by pass  1 Test12= 1.29D-10 5.56D-07 XBig12= 1.46D-01 1.14D-01.
     12 vectors produced by pass  2 Test12= 1.29D-10 5.56D-07 XBig12= 4.54D-03 1.34D-02.
     12 vectors produced by pass  3 Test12= 1.29D-10 5.56D-07 XBig12= 1.71D-04 3.65D-03.
     12 vectors produced by pass  4 Test12= 1.29D-10 5.56D-07 XBig12= 2.40D-06 3.94D-04.
     11 vectors produced by pass  5 Test12= 1.29D-10 5.56D-07 XBig12= 3.02D-08 3.92D-05.
      5 vectors produced by pass  6 Test12= 1.29D-10 5.56D-07 XBig12= 3.63D-10 4.14D-06.
      1 vectors produced by pass  7 Test12= 1.29D-10 5.56D-07 XBig12= 2.93D-12 5.89D-07.
 Inverted reduced A of dimension    77 with in-core refinement.
 End of Minotr Frequency-dependent properties file   721 does not exist.
 End of Minotr Frequency-dependent properties file   722 does not exist.

 **********************************************************************

            Population analysis using the SCF density.

 **********************************************************************

 Orbital symmetries:
       Occupied  (A) (A) (A) (A) (A) (A) (A) (A) (A) (A) (A) (A)
                 (A) (A) (A) (A) (A) (A) (A) (A) (A) (A) (A) (A)
                 (A)
       Virtual   (A) (A) (A) (A) (A) (A) (A) (A) (A) (A) (A) (A)
                 (A) (A) (A) (A) (A) (A) (A) (A) (A) (A) (A) (A)
                 (A) (A) (A) (A) (A) (A) (A) (A) (A) (A) (A) (A)
                 (A) (A) (A) (A) (A) (A) (A) (A) (A) (A) (A) (A)
                 (A) (A) (A) (A) (A) (A) (A) (A) (A) (A) (A) (A)
                 (A) (A) (A) (A) (A) (A) (A) (A) (A) (A) (A) (A)
                 (A) (A) (A) (A) (A) (A) (A) (A) (A) (A) (A) (A)
                 (A) (A) (A) (A) (A) (A) (A) (A) (A)
 The electronic state is 1-A.
 Alpha  occ. eigenvalues --  -90.08997 -19.58297 -19.58295 -19.54556 -19.54542
 Alpha  occ. eigenvalues --   -8.42503  -6.34785  -6.34736  -6.34726  -1.23795
 Alpha  occ. eigenvalues --   -1.09215  -1.07092  -1.01719  -0.64041  -0.53585
 Alpha  occ. eigenvalues --   -0.53157  -0.52889  -0.41606  -0.40185  -0.39513
 Alpha  occ. eigenvalues --   -0.37901  -0.36955  -0.31909  -0.30489  -0.28219
 Alpha virt. eigenvalues --    0.03054   0.05886   0.05950   0.06070   0.15618
 Alpha virt. eigenvalues --    0.15885   0.16569   0.20020   0.21035   0.21734
 Alpha virt. eigenvalues --    0.21976   0.22572   0.26758   0.27002   0.27252
 Alpha virt. eigenvalues --    0.27859   0.29840   0.30273   0.30439   0.30546
 Alpha virt. eigenvalues --    0.33267   0.33613   0.36497   0.36865   0.41490
 Alpha virt. eigenvalues --    0.43004   0.43722   0.78341   0.78993   0.92008
 Alpha virt. eigenvalues --    1.02304   1.03109   1.03676   1.13448   1.13504
 Alpha virt. eigenvalues --    1.16402   1.16897   1.18864   1.20780   1.22139
 Alpha virt. eigenvalues --    1.22343   1.22609   1.27899   1.28564   1.28818
 Alpha virt. eigenvalues --    1.57176   1.58693   1.66572   1.74518   1.83681
 Alpha virt. eigenvalues --    1.91374   1.95450   2.86766   2.88305   2.91608
 Alpha virt. eigenvalues --    2.92026   2.92477   2.92858   2.94149   2.96187
 Alpha virt. eigenvalues --    2.98816   2.99191   3.00822   3.15837   3.17486
 Alpha virt. eigenvalues --    3.17901   3.23797   3.29949   3.37401   3.60806
 Alpha virt. eigenvalues --    3.65712   3.67162   5.09364   5.10345   5.13293
 Alpha virt. eigenvalues --    5.14806   5.15244   5.20070   5.20354   5.20903
 Alpha virt. eigenvalues --    5.22078   5.30220   5.41634   5.46367   8.31914
 Alpha virt. eigenvalues --   17.50525  17.61353  17.63744  49.99888  50.00294
 Alpha virt. eigenvalues --   50.04967  50.07051 189.52366
          Condensed to atoms (all electrons):
              1          2          3          4          5
     1  S   14.366932   0.159284   0.159211   0.303714   0.303836
     2  O    0.159284   8.915771  -0.212981  -0.150331  -0.150248
     3  O    0.159211  -0.212981   8.915758  -0.150360  -0.150241
     4  O    0.303714  -0.150331  -0.150360   9.021781  -0.233279
     5  O    0.303836  -0.150248  -0.150241  -0.233279   9.022548
 Mulliken atomic charges:
              1
     1  S    0.707024
     2  O   -0.561494
     3  O   -0.561388
     4  O   -0.791525
     5  O   -0.792617
 Sum of Mulliken atomic charges =  -2.00000
 Mulliken charges with hydrogens summed into heavy atoms:
              1
     1  S    0.707024
     2  O   -0.561494
     3  O   -0.561388
     4  O   -0.791525
     5  O   -0.792617
 Sum of Mulliken charges with hydrogens summed into heavy atoms =  -2.00000
 APT atomic charges:
              1
     1  S    0.118815
     2  O   -0.390368
     3  O   -0.390252
     4  O   -0.668480
     5  O   -0.669714
 Sum of APT charges=  -2.00000
 APT Atomic charges with hydrogens summed into heavy atoms:
              1
     1  S    0.118815
     2  O   -0.390368
     3  O   -0.390252
     4  O   -0.668480
     5  O   -0.669714
 Sum of APT charges=  -2.00000
 Electronic spatial extent (au):  <R**2>=            367.6714
 Charge=             -2.0000 electrons
 Dipole moment (field-independent basis, Debye):
    X=              2.4163    Y=             -0.0002    Z=             -0.0084  Tot=              2.4163
 Quadrupole moment (field-independent basis, Debye-Ang):
   XX=            -51.7339   YY=            -49.0910   ZZ=            -49.7407
   XY=             -0.0006   XZ=              0.0044   YZ=             -0.0007
 Traceless Quadrupole moment (field-independent basis, Debye-Ang):
   XX=             -1.5453   YY=              1.0975   ZZ=              0.4478
   XY=             -0.0006   XZ=              0.0044   YZ=             -0.0007
 Octapole moment (field-independent basis, Debye-Ang**2):
  XXX=              5.5091  YYY=             -0.0056  ZZZ=             -0.0265  XYY=             -8.8448
  XXY=              0.0032  XXZ=             -0.0079  XZZ=             12.5813  YZZ=              0.0015
  YYZ=             -0.0050  XYZ=              0.0053
 Hexadecapole moment (field-independent basis, Debye-Ang**3):
 XXXX=           -194.9448 YYYY=           -176.8023 ZZZZ=           -166.5775 XXXY=              0.0010
 XXXZ=              0.0140 YYYX=             -0.0030 YYYZ=              0.0016 ZZZX=              0.0173
 ZZZY=             -0.0055 XXYY=            -66.2142 XXZZ=            -64.5639 YYZZ=            -52.4172
 XXYZ=             -0.0008 YYXZ=              0.0053 ZZXY=             -0.0018
 N-N= 2.642908168614D+02 E-N=-2.209620020580D+03  KE= 6.981070146486D+02
  Exact polarizability:   0.000   0.000   0.000   0.000   0.000   0.000
 Approx polarizability:  44.261   0.000  42.713   0.003  -0.001  37.093
 D2PCM: PCM CHGder 2nd derivatives, FixD1E=F FixD2E=F DoIter=F DoCFld=F I1PDM=0
 Calling FoFJK, ICntrl=    100147 FMM=F ISym2X=0 I1Cent= 0 IOpClX= 0 NMat=1 NMatS=1 NMatT=0.
 ***** Axes restored to original set *****
 -------------------------------------------------------------------
 Center     Atomic                   Forces (Hartrees/Bohr)
 Number     Number              X              Y              Z
 -------------------------------------------------------------------
      1       16          -0.114365462    0.000021560    0.000346004
      2        8           0.020623128    0.011992943   -0.000067762
      3        8           0.020631909   -0.012009662   -0.000051688
      4        8           0.036503432   -0.000008932   -0.041280674
      5        8           0.036606993    0.000004091    0.041054120
 -------------------------------------------------------------------
 Cartesian Forces:  Max     0.114365462 RMS     0.036770228

 GradGradGradGradGradGradGradGradGradGradGradGradGradGradGradGradGradGrad
 Berny optimization.
 Internal  Forces:  Max     0.107920151 RMS     0.035744549
 Search for a local minimum.
 Step number   1 out of a maximum of   24
 All quantities printed in internal units (Hartrees-Bohrs-Radians)
 Mixed Optimization -- RFO/linear search
 Second derivative matrix not updated -- analytic derivatives used.
 The second derivative matrix:
                          R1        R2        R3        R4        A1
           R1           0.55844
           R2           0.02960   0.55852
           R3           0.02947   0.02947   0.36932
           R4           0.02950   0.02949   0.06983   0.36854
           A1           0.00779   0.00779   0.00310  -0.00181   0.05774
           A2           0.01234  -0.00932  -0.00968  -0.03245  -0.02684
           A3           0.02642  -0.02690  -0.02857  -0.00410  -0.03608
           A4          -0.00931   0.01234  -0.00969  -0.03246  -0.02685
           A5          -0.02690   0.02641  -0.02857  -0.00413  -0.03606
           A6          -0.01461  -0.01461   0.08609   0.08947   0.06320
           D1           0.01344   0.01344  -0.01259  -0.05910   0.03329
           D2          -0.01037  -0.01036   0.04537   0.00966  -0.01729
           D3           0.01298  -0.02335   0.02269   0.00483  -0.00864
           D4           0.02335  -0.01298  -0.02269  -0.00483   0.00864
                          A2        A3        A4        A5        A6
           A2           0.07732
           A3           0.00717   0.19093
           A4           0.01214   0.02603   0.07735
           A5           0.02602  -0.10411   0.00717   0.19090
           A6          -0.10549  -0.08855  -0.10555  -0.08854   0.36615
           D1           0.04077  -0.02110   0.04078  -0.02109  -0.09634
           D2           0.00834  -0.02549   0.00833  -0.02547   0.06636
           D3           0.03794   0.01125  -0.02961  -0.03673   0.03318
           D4           0.02960   0.03674  -0.03794  -0.01126  -0.03318
                          D1        D2        D3        D4
           D1           0.11729
           D2          -0.00945   0.06824
           D3          -0.00472   0.03411   0.05992
           D4           0.00472  -0.03412   0.02581   0.05993
     Eigenvalues ---    0.11756   0.13737   0.14981   0.29123   0.31818
     Eigenvalues ---    0.32156   0.54623   0.59693   0.641721000.00000
     Eigenvalues --- 1000.000001000.000001000.000001000.00000
 RFO step:  Lambda=-3.75010264D-02 EMin= 1.17557871D-01
 Linear search not attempted -- first point.
 Maximum step size (   0.300) exceeded in Quadratic search.
    -- Step size scaled by   0.949
 Iteration  1 RMS(Cart)=  0.08605440 RMS(Int)=  0.00612447
 Iteration  2 RMS(Cart)=  0.00525253 RMS(Int)=  0.00154430
 Iteration  3 RMS(Cart)=  0.00000180 RMS(Int)=  0.00154430
 Iteration  4 RMS(Cart)=  0.00000000 RMS(Int)=  0.00154430
 Variable       Old X    -DE/DX   Delta X   Delta X   Delta X     New X
                                 (Linear)    (Quad)   (Total)
    R1        2.77032   0.02125   0.00000   0.04829   0.04829   2.81861
    R2        2.77026   0.02127   0.00000   0.04834   0.04834   2.81860
    R3        2.89672   0.00448   0.00000  -0.05714  -0.05714   2.83958
    R4        2.89769   0.00428   0.00000  -0.05866  -0.05866   2.83902
    A1        1.99646   0.00719   0.00000  -0.04250  -0.04600   1.95047
    A2        1.95573  -0.02754   0.00000  -0.03098  -0.03319   1.92254
    A3        1.95504  -0.02245   0.00000  -0.02911  -0.03114   1.92390
    A4        1.95573  -0.02755   0.00000  -0.03096  -0.03315   1.92258
    A5        1.95519  -0.02249   0.00000  -0.02926  -0.03128   1.92391
    A6        1.61157   0.10792   0.00000   0.20596   0.20440   1.81597
    D1        2.27162  -0.03806   0.00000  -0.11296  -0.11216   2.15946
    D2       -2.27055   0.02911   0.00000   0.10960   0.10924  -2.16131
    D3        2.00630   0.01455   0.00000   0.05479   0.05462   2.06091
    D4       -2.00634  -0.01455   0.00000  -0.05481  -0.05462  -2.06096
         Item               Value     Threshold  Converged?
 Maximum Force            0.107920     0.000450     NO 
 RMS     Force            0.035745     0.000300     NO 
 Maximum Displacement     0.148208     0.001800     NO 
 RMS     Displacement     0.084126     0.001200     NO 
 Predicted change in Energy=-2.038446D-02
 GradGradGradGradGradGradGradGradGradGradGradGradGradGradGradGradGradGrad

                          Input orientation:                          
 ---------------------------------------------------------------------
 Center     Atomic      Atomic             Coordinates (Angstroms)
 Number     Number       Type             X           Y           Z
 ---------------------------------------------------------------------
      1         16           0        0.017293    0.000000    0.000588
      2          8           0        0.853809    1.234887   -0.000685
      3          8           0        0.854211   -1.234607   -0.000066
      4          8           0       -0.907011   -0.000417   -1.184143
      5          8           0       -0.907474    0.000146    1.184585
 ---------------------------------------------------------------------
                    Distance matrix (angstroms):
                    1          2          3          4          5
     1  S    0.000000
     2  O    1.491545   0.000000
     3  O    1.491538   2.469494   0.000000
     4  O    1.502640   2.455002   2.455029   0.000000
     5  O    1.502346   2.455925   2.455920   2.368729   0.000000
 Stoichiometry    O4S(2-)
 Framework group  C1[X(O4S)]
 Deg. of freedom     9
 Full point group                 C1      NOp   1
 Largest Abelian subgroup         C1      NOp   1
 Largest concise Abelian subgroup C1      NOp   1
                         Standard orientation:                         
 ---------------------------------------------------------------------
 Center     Atomic      Atomic             Coordinates (Angstroms)
 Number     Number       Type             X           Y           Z
 ---------------------------------------------------------------------
      1         16           0       -0.029270    0.000003   -0.000596
      2          8           0       -0.865559    1.235040   -0.004185
      3          8           0       -0.866402   -1.234454   -0.003804
      4          8           0        0.888845   -0.000096    1.188938
      5          8           0        0.901656   -0.000497   -1.179756
 ---------------------------------------------------------------------
 Rotational constants (GHZ):      5.3967936      5.3462164      5.1344370
 Standard basis: 6-311++G(d,p) (5D, 7F)
 There are   118 symmetry adapted basis functions of A   symmetry.
 Integral buffers will be    131072 words long.
 Raffenetti 2 integral format.
 Two-electron integral symmetry is turned on.
   118 basis functions,   194 primitive gaussians,   123 cartesian basis functions
    25 alpha electrons       25 beta electrons
       nuclear repulsion energy       264.1705940780 Hartrees.
 NAtoms=    5 NActive=    5 NUniq=    5 SFac= 7.50D-01 NAtFMM=   80 NAOKFM=F Big=F
 ------------------------------------------------------------------------------
 Polarizable Continuum Model (PCM)
 =================================
 Model                : PCM.
 Atomic radii         : SMD-Coulomb.
 Polarization charges : Total charges.
 Charge compensation  : None.
 Solution method      : Matrix inversion.
 Cavity type          : VdW (van der Waals Surface) (Alpha=1.000).
 Cavity algorithm     : GePol (No added spheres)
                        Default sphere list used, NSphG=    5.
                        Lebedev-Laikov grids with approx.  5.0 points / Ang**2.
                        Smoothing algorithm: Karplus/York (Gamma=1.0000).
                        Polarization charges: spherical gaussians, with
                                              point-specific exponents (IZeta= 3).
                        Self-potential: point-specific (ISelfS= 7).
                        Self-field    : sphere-specific E.n sum rule (ISelfD= 2).
 1st derivatives      : Analytical E(r).r(x)/FMM algorithm (CHGder, D1EAlg=3).
                        Cavity 1st derivative terms included.
 Solvent              : Water, Eps=  78.355300 Eps(inf)=   1.777849
 ------------------------------------------------------------------------------
 Spheres list:
 ISph  on   Nord    Re0     Alpha      Xe            Ye            Ze
    1   S      1    2.490   1.000     -0.029270      0.000003     -0.000596
    2   O      2    1.520   1.000     -0.865559      1.235040     -0.004185
    3   O      3    1.520   1.000     -0.866402     -1.234454     -0.003804
    4   O      4    1.520   1.000      0.888845     -0.000096      1.188938
    5   O      5    1.520   1.000      0.901656     -0.000497     -1.179756
 ------------------------------------------------------------------------------
 ------------------------------------------------------------------------------
 Atomic radii for non-electrostatic terms: SMD-CDS.
 ------------------------------------------------------------------------------
 Nuclear repulsion after PCM non-electrostatic terms =      264.1705298760 Hartrees.
 One-electron integrals computed using PRISM.
 NBasis=   118 RedAO= T  NBF=   118
 NBsUse=   118 1.00D-06 NBFU=   118
 Initial guess read from the read-write file.
 B after Tr=     0.000000    0.000000    0.000000
         Rot=    1.000000    0.000000    0.000000    0.000000 Ang=   0.00 deg.
 Initial guess orbital symmetries:
       Occupied  (A) (A) (A) (A) (A) (A) (A) (A) (A) (A) (A) (A)
                 (A) (A) (A) (A) (A) (A) (A) (A) (A) (A) (A) (A)
                 (A)
       Virtual   (A) (A) (A) (A) (A) (A) (A) (A) (A) (A) (A) (A)
                 (A) (A) (A) (A) (A) (A) (A) (A) (A) (A) (A) (A)
                 (A) (A) (A) (A) (A) (A) (A) (A) (A) (A) (A) (A)
                 (A) (A) (A) (A) (A) (A) (A) (A) (A) (A) (A) (A)
                 (A) (A) (A) (A) (A) (A) (A) (A) (A) (A) (A) (A)
                 (A) (A) (A) (A) (A) (A) (A) (A) (A) (A) (A) (A)
                 (A) (A) (A) (A) (A) (A) (A) (A) (A) (A) (A) (A)
                 (A) (A) (A) (A) (A) (A) (A) (A) (A)
 Harris functional with IExCor= 1009 diagonalized for initial guess.
 ExpMin= 4.05D-02 ExpMax= 9.34D+04 ExpMxC= 3.17D+03 IAcc=2 IRadAn=         0 AccDes= 0.00D+00
 HarFok:  IExCor= 1009 AccDes= 0.00D+00 IRadAn=         0 IDoV= 1
 ScaDFX=  1.000000  1.000000  1.000000  1.000000
 FoFCou: FMM=F IPFlag=           0 FMFlag=      100000 FMFlg1=           0
         NFxFlg=           0 DoJE=T BraDBF=F KetDBF=T FulRan=T
         Omega=  0.000000  0.000000  1.000000  0.000000  0.000000 ICntrl=     500 IOpCl=  0
         NMat0=    1 NMatS0=    1 NMatT0=    0 NMatD0=    1 NMtDS0=    0 NMtDT0=    0
         I1Cent=           4 NGrid=           0.
 Petite list used in FoFCou.
 Requested convergence on RMS density matrix=1.00D-08 within 128 cycles.
 Requested convergence on MAX density matrix=1.00D-06.
 Requested convergence on             energy=1.00D-06.
 No special actions if energy rises.
 Keep R1 ints in memory in canonical form, NReq=32518692.
 Error on total polarization charges =  0.05189
 SCF Done:  E(RM062X) =  -699.350384523     A.U. after   12 cycles
             Convg  =    0.8181D-08             -V/T =  2.0018
 SMD-CDS (non-electrostatic) energy             (kcal/mol) =      -0.04
 (included in total energy above)
 D1PCM: PCM CHGder 1st derivatives, ID1Alg=3 FixD1E=F DoIter=F DoCFld=F I1PDM=0.
 Calling FoFJK, ICntrl=      2127 FMM=F ISym2X=0 I1Cent= 0 IOpClX= 0 NMat=1 NMatS=1 NMatT=0.
 ***** Axes restored to original set *****
 -------------------------------------------------------------------
 Center     Atomic                   Forces (Hartrees/Bohr)
 Number     Number              X              Y              Z
 -------------------------------------------------------------------
      1       16          -0.031807132    0.000009709   -0.000403113
      2        8           0.008627691    0.001734779    0.000177084
      3        8           0.008629130   -0.001742253    0.000174000
      4        8           0.007116123   -0.000006931   -0.016069216
      5        8           0.007434188    0.000004696    0.016121245
 -------------------------------------------------------------------
 Cartesian Forces:  Max     0.031807132 RMS     0.010926672

 GradGradGradGradGradGradGradGradGradGradGradGradGradGradGradGradGradGrad
 Berny optimization.
 Using GEDIIS/GDIIS optimizer.
 Internal  Forces:  Max     0.029627601 RMS     0.010517933
 Search for a local minimum.
 Step number   2 out of a maximum of   24
 All quantities printed in internal units (Hartrees-Bohrs-Radians)
 Mixed Optimization -- RFO/linear search
 Update second derivatives using D2CorX and points    1    2
 DE= -2.20D-02 DEPred=-2.04D-02 R= 1.08D+00
 SS=  1.41D+00  RLast= 3.00D-01 DXNew= 5.0454D-01 8.9949D-01
 Trust test= 1.08D+00 RLast= 3.00D-01 DXMaxT set to 5.05D-01
 The second derivative matrix:
                          R1        R2        R3        R4        A1
           R1           0.55595
           R2           0.02711   0.55602
           R3           0.02342   0.02341   0.36854
           R4           0.02351   0.02350   0.06908   0.36783
           A1           0.00751   0.00751   0.00010  -0.00477   0.05810
           A2           0.01582  -0.00583  -0.00148  -0.02434  -0.02641
           A3           0.02915  -0.02416  -0.02191   0.00249  -0.03578
           A4          -0.00582   0.01583  -0.00149  -0.02434  -0.02641
           A5          -0.02418   0.02914  -0.02190   0.00248  -0.03577
           A6          -0.02679  -0.02682   0.05475   0.05844   0.06213
           D1           0.01748   0.01749  -0.00203  -0.04865   0.03362
           D2          -0.01342  -0.01343   0.03760   0.00196  -0.01757
           D3           0.01145  -0.02488   0.01880   0.00098  -0.00879
           D4           0.02487  -0.01145  -0.01880  -0.00098   0.00878
                          A2        A3        A4        A5        A6
           A2           0.07245
           A3           0.00335   0.18793
           A4           0.00727   0.02221   0.07247
           A5           0.02220  -0.10710   0.00335   0.18792
           A6          -0.08842  -0.07519  -0.08846  -0.07521   0.30678
           D1           0.03511  -0.02553   0.03511  -0.02551  -0.07668
           D2           0.01262  -0.02214   0.01262  -0.02212   0.05145
           D3           0.04009   0.01293  -0.02746  -0.03505   0.02571
           D4           0.02747   0.03506  -0.04008  -0.01293  -0.02573
                          D1        D2        D3        D4
           D1           0.11078
           D2          -0.00451   0.06449
           D3          -0.00225   0.03224   0.05898
           D4           0.00226  -0.03225   0.02675   0.05900
 Use linear search instead of GDIIS.
     Eigenvalues ---    0.11600   0.13735   0.14760   0.28513   0.31794
     Eigenvalues ---    0.33398   0.53279   0.54554   0.600351000.00000
     Eigenvalues --- 1000.000001000.000001000.000001000.00000
 RFO step:  Lambda=-6.90836861D-04 EMin= 1.16001789D-01
 Quartic linear search produced a step of  0.44214.
 Iteration  1 RMS(Cart)=  0.03493283 RMS(Int)=  0.00165849
 Iteration  2 RMS(Cart)=  0.00128859 RMS(Int)=  0.00118092
 Iteration  3 RMS(Cart)=  0.00000035 RMS(Int)=  0.00118092
 Variable       Old X    -DE/DX   Delta X   Delta X   Delta X     New X
                                 (Linear)    (Quad)   (Total)
    R1        2.81861   0.00627   0.02135   0.00121   0.02257   2.84118
    R2        2.81860   0.00628   0.02137   0.00122   0.02259   2.84119
    R3        2.83958   0.00829  -0.02526   0.01674  -0.00852   2.83105
    R4        2.83902   0.00813  -0.02594   0.01910  -0.00684   2.83218
    A1        1.95047  -0.00118  -0.02034  -0.02712  -0.04953   1.90093
    A2        1.92254  -0.00736  -0.01467   0.01203  -0.00427   1.91828
    A3        1.92390  -0.00596  -0.01377   0.00460  -0.01106   1.91285
    A4        1.92258  -0.00737  -0.01466   0.01196  -0.00432   1.91826
    A5        1.92391  -0.00596  -0.01383   0.00465  -0.01106   1.91285
    A6        1.81597   0.02963   0.09037  -0.00402   0.08469   1.90067
    D1        2.15946  -0.01160  -0.04959  -0.01790  -0.06754   2.09192
    D2       -2.16131   0.00973   0.04830   0.02805   0.07609  -2.08522
    D3        2.06091   0.00487   0.02415   0.01406   0.03808   2.09899
    D4       -2.06096  -0.00486  -0.02415  -0.01399  -0.03801  -2.09897
         Item               Value     Threshold  Converged?
 Maximum Force            0.029628     0.000450     NO 
 RMS     Force            0.010518     0.000300     NO 
 Maximum Displacement     0.068479     0.001800     NO 
 RMS     Displacement     0.034244     0.001200     NO 
 Predicted change in Energy=-1.934243D-03
 GradGradGradGradGradGradGradGradGradGradGradGradGradGradGradGradGradGrad

                          Input orientation:                          
 ---------------------------------------------------------------------
 Center     Atomic      Atomic             Coordinates (Angstroms)
 Number     Number       Type             X           Y           Z
 ---------------------------------------------------------------------
      1         16           0       -0.018944    0.000005   -0.001926
      2          8           0        0.854838    1.223511    0.001223
      3          8           0        0.855228   -1.223230    0.001816
      4          8           0       -0.891744   -0.000440   -1.219550
      5          8           0       -0.888548    0.000163    1.218716
 ---------------------------------------------------------------------
                    Distance matrix (angstroms):
                    1          2          3          4          5
     1  S    0.000000
     2  O    1.503487   0.000000
     3  O    1.503494   2.446741   0.000000
     4  O    1.498129   2.457416   2.457409   0.000000
     5  O    1.498725   2.453215   2.453220   2.438268   0.000000
 Stoichiometry    O4S(2-)
 Framework group  C1[X(O4S)]
 Deg. of freedom     9
 Full point group                 C1      NOp   1
 Largest Abelian subgroup         C1      NOp   1
 Largest concise Abelian subgroup C1      NOp   1
                         Standard orientation:                         
 ---------------------------------------------------------------------
 Center     Atomic      Atomic             Coordinates (Angstroms)
 Number     Number       Type             X           Y           Z
 ---------------------------------------------------------------------
      1         16           0        0.001083   -0.000002   -0.001552
      2          8           0       -0.869069   -1.223270   -0.084762
      3          8           0       -0.868949    1.223470   -0.083124
      4          8           0        0.989228    0.000714   -1.127589
      5          8           0        0.746625   -0.000910    1.298579
 ---------------------------------------------------------------------
 Rotational constants (GHZ):      5.2968180      5.2500776      5.2314703
 Standard basis: 6-311++G(d,p) (5D, 7F)
 There are   118 symmetry adapted basis functions of A   symmetry.
 Integral buffers will be    131072 words long.
 Raffenetti 2 integral format.
 Two-electron integral symmetry is turned on.
   118 basis functions,   194 primitive gaussians,   123 cartesian basis functions
    25 alpha electrons       25 beta electrons
       nuclear repulsion energy       263.4166830933 Hartrees.
 NAtoms=    5 NActive=    5 NUniq=    5 SFac= 7.50D-01 NAtFMM=   80 NAOKFM=F Big=F
 ------------------------------------------------------------------------------
 Polarizable Continuum Model (PCM)
 =================================
 Model                : PCM.
 Atomic radii         : SMD-Coulomb.
 Polarization charges : Total charges.
 Charge compensation  : None.
 Solution method      : Matrix inversion.
 Cavity type          : VdW (van der Waals Surface) (Alpha=1.000).
 Cavity algorithm     : GePol (No added spheres)
                        Default sphere list used, NSphG=    5.
                        Lebedev-Laikov grids with approx.  5.0 points / Ang**2.
                        Smoothing algorithm: Karplus/York (Gamma=1.0000).
                        Polarization charges: spherical gaussians, with
                                              point-specific exponents (IZeta= 3).
                        Self-potential: point-specific (ISelfS= 7).
                        Self-field    : sphere-specific E.n sum rule (ISelfD= 2).
 1st derivatives      : Analytical E(r).r(x)/FMM algorithm (CHGder, D1EAlg=3).
                        Cavity 1st derivative terms included.
 Solvent              : Water, Eps=  78.355300 Eps(inf)=   1.777849
 ------------------------------------------------------------------------------
 Spheres list:
 ISph  on   Nord    Re0     Alpha      Xe            Ye            Ze
    1   S      1    2.490   1.000      0.001083     -0.000002     -0.001552
    2   O      2    1.520   1.000     -0.869069     -1.223270     -0.084762
    3   O      3    1.520   1.000     -0.868949      1.223470     -0.083124
    4   O      4    1.520   1.000      0.989228      0.000714     -1.127589
    5   O      5    1.520   1.000      0.746625     -0.000910      1.298579
 ------------------------------------------------------------------------------
 ------------------------------------------------------------------------------
 Atomic radii for non-electrostatic terms: SMD-CDS.
 ------------------------------------------------------------------------------
 Nuclear repulsion after PCM non-electrostatic terms =      263.4166138850 Hartrees.
 One-electron integrals computed using PRISM.
 NBasis=   118 RedAO= T  NBF=   118
 NBsUse=   118 1.00D-06 NBFU=   118
 Initial guess read from the read-write file.
 B after Tr=     0.000000    0.000000    0.000000
         Rot=    1.000000    0.000000    0.000000    0.000000 Ang=   0.00 deg.
 Initial guess orbital symmetries:
       Occupied  (A) (A) (A) (A) (A) (A) (A) (A) (A) (A) (A) (A)
                 (A) (A) (A) (A) (A) (A) (A) (A) (A) (A) (A) (A)
                 (A)
       Virtual   (A) (A) (A) (A) (A) (A) (A) (A) (A) (A) (A) (A)
                 (A) (A) (A) (A) (A) (A) (A) (A) (A) (A) (A) (A)
                 (A) (A) (A) (A) (A) (A) (A) (A) (A) (A) (A) (A)
                 (A) (A) (A) (A) (A) (A) (A) (A) (A) (A) (A) (A)
                 (A) (A) (A) (A) (A) (A) (A) (A) (A) (A) (A) (A)
                 (A) (A) (A) (A) (A) (A) (A) (A) (A) (A) (A) (A)
                 (A) (A) (A) (A) (A) (A) (A) (A) (A) (A) (A) (A)
                 (A) (A) (A) (A) (A) (A) (A) (A) (A)
 Harris functional with IExCor= 1009 diagonalized for initial guess.
 ExpMin= 4.05D-02 ExpMax= 9.34D+04 ExpMxC= 3.17D+03 IAcc=2 IRadAn=         0 AccDes= 0.00D+00
 HarFok:  IExCor= 1009 AccDes= 0.00D+00 IRadAn=         0 IDoV= 1
 ScaDFX=  1.000000  1.000000  1.000000  1.000000
 FoFCou: FMM=F IPFlag=           0 FMFlag=      100000 FMFlg1=           0
         NFxFlg=           0 DoJE=T BraDBF=F KetDBF=T FulRan=T
         Omega=  0.000000  0.000000  1.000000  0.000000  0.000000 ICntrl=     500 IOpCl=  0
         NMat0=    1 NMatS0=    1 NMatT0=    0 NMatD0=    1 NMtDS0=    0 NMtDT0=    0
         I1Cent=           4 NGrid=           0.
 Petite list used in FoFCou.
 Requested convergence on RMS density matrix=1.00D-08 within 128 cycles.
 Requested convergence on MAX density matrix=1.00D-06.
 Requested convergence on             energy=1.00D-06.
 No special actions if energy rises.
 Keep R1 ints in memory in canonical form, NReq=32541714.
 Error on total polarization charges =  0.05172
 SCF Done:  E(RM062X) =  -699.352706008     A.U. after   12 cycles
             Convg  =    0.4399D-08             -V/T =  2.0019
 SMD-CDS (non-electrostatic) energy             (kcal/mol) =      -0.04
 (included in total energy above)
 D1PCM: PCM CHGder 1st derivatives, ID1Alg=3 FixD1E=F DoIter=F DoCFld=F I1PDM=0.
 Calling FoFJK, ICntrl=      2127 FMM=F ISym2X=0 I1Cent= 0 IOpClX= 0 NMat=1 NMatS=1 NMatT=0.
 ***** Axes restored to original set *****
 -------------------------------------------------------------------
 Center     Atomic                   Forces (Hartrees/Bohr)
 Number     Number              X              Y              Z
 -------------------------------------------------------------------
      1       16           0.002140125   -0.000000210    0.001635995
      2        8          -0.000726074    0.000866090   -0.000646990
      3        8          -0.000716119   -0.000869173   -0.000651224
      4        8           0.000284350    0.000002597   -0.003834622
      5        8          -0.000982281    0.000000696    0.003496841
 -------------------------------------------------------------------
 Cartesian Forces:  Max     0.003834622 RMS     0.001604636

 GradGradGradGradGradGradGradGradGradGradGradGradGradGradGradGradGradGrad
 Berny optimization.
 Using GEDIIS/GDIIS optimizer.
 Internal  Forces:  Max     0.003999507 RMS     0.001867301
 Search for a local minimum.
 Step number   3 out of a maximum of   24
 All quantities printed in internal units (Hartrees-Bohrs-Radians)
 Mixed Optimization -- RFO/linear search
 Update second derivatives using D2CorX and points    1    2    3
 DE= -2.32D-03 DEPred=-1.93D-03 R= 1.20D+00
 SS=  1.41D+00  RLast= 1.56D-01 DXNew= 8.4853D-01 4.6758D-01
 Trust test= 1.20D+00 RLast= 1.56D-01 DXMaxT set to 5.05D-01
 The second derivative matrix:
                          R1        R2        R3        R4        A1
           R1           0.55441
           R2           0.02556   0.55446
           R3           0.02141   0.02140   0.36683
           R4           0.02093   0.02090   0.06703   0.36551
           A1           0.00484   0.00484  -0.00176  -0.00641   0.05880
           A2           0.01811  -0.00352   0.00115  -0.02116  -0.02381
           A3           0.03009  -0.02321  -0.02032   0.00462  -0.03335
           A4          -0.00353   0.01814   0.00115  -0.02117  -0.02382
           A5          -0.02324   0.03009  -0.02032   0.00461  -0.03333
           A6          -0.03702  -0.03710   0.04322   0.04446   0.05031
           D1           0.02218   0.02221   0.00290  -0.04276   0.03841
           D2          -0.01542  -0.01543   0.03477  -0.00185  -0.02205
           D3           0.01046  -0.02588   0.01739  -0.00092  -0.01103
           D4           0.02588  -0.01044  -0.01738   0.00093   0.01102
                          A2        A3        A4        A5        A6
           A2           0.06940
           A3           0.00174   0.18750
           A4           0.00421   0.02061   0.06941
           A5           0.02061  -0.10753   0.00175   0.18749
           A6          -0.07469  -0.06801  -0.07471  -0.06803   0.24525
           D1           0.02894  -0.02897   0.02895  -0.02894  -0.04916
           D2           0.01587  -0.02104   0.01587  -0.02104   0.03705
           D3           0.04171   0.01347  -0.02584  -0.03451   0.01854
           D4           0.02584   0.03451  -0.04171  -0.01348  -0.01851
                          D1        D2        D3        D4
           D1           0.09863
           D2           0.00219   0.06212
           D3           0.00109   0.03106   0.05840
           D4          -0.00110  -0.03106   0.02734   0.05840
 Use linear search instead of GDIIS.
     Eigenvalues ---    0.11671   0.13729   0.14042   0.27878   0.30324
     Eigenvalues ---    0.31782   0.47756   0.54481   0.600221000.00000
     Eigenvalues --- 1000.000001000.000001000.000001000.00000
 RFO step:  Lambda=-1.11422326D-04 EMin= 1.16712187D-01
 Quartic linear search produced a step of  0.06847.
 Iteration  1 RMS(Cart)=  0.00743665 RMS(Int)=  0.00004867
 Iteration  2 RMS(Cart)=  0.00003399 RMS(Int)=  0.00003713
 Iteration  3 RMS(Cart)=  0.00000000 RMS(Int)=  0.00003713
 Variable       Old X    -DE/DX   Delta X   Delta X   Delta X     New X
                                 (Linear)    (Quad)   (Total)
    R1        2.84118   0.00028   0.00155  -0.00077   0.00078   2.84196
    R2        2.84119   0.00029   0.00155  -0.00076   0.00079   2.84198
    R3        2.83105   0.00295  -0.00058   0.00752   0.00693   2.83798
    R4        2.83218   0.00342  -0.00047   0.00587   0.00540   2.83758
    A1        1.90093   0.00137  -0.00339   0.00962   0.00615   1.90708
    A2        1.91828  -0.00198  -0.00029  -0.00813  -0.00848   1.90980
    A3        1.91285  -0.00072  -0.00076   0.00106   0.00025   1.91310
    A4        1.91826  -0.00197  -0.00030  -0.00811  -0.00846   1.90980
    A5        1.91285  -0.00072  -0.00076   0.00108   0.00027   1.91312
    A6        1.90067   0.00400   0.00580   0.00446   0.01022   1.91089
    D1        2.09192  -0.00078  -0.00462   0.00171  -0.00289   2.08904
    D2       -2.08522  -0.00080   0.00521  -0.01308  -0.00786  -2.09309
    D3        2.09899  -0.00040   0.00261  -0.00655  -0.00395   2.09504
    D4       -2.09897   0.00040  -0.00260   0.00652   0.00392  -2.09505
         Item               Value     Threshold  Converged?
 Maximum Force            0.004000     0.000450     NO 
 RMS     Force            0.001867     0.000300     NO 
 Maximum Displacement     0.015171     0.001800     NO 
 RMS     Displacement     0.007450     0.001200     NO 
 Predicted change in Energy=-6.697461D-05
 GradGradGradGradGradGradGradGradGradGradGradGradGradGradGradGradGradGrad

                          Input orientation:                          
 ---------------------------------------------------------------------
 Center     Atomic      Atomic             Coordinates (Angstroms)
 Number     Number       Type             X           Y           Z
 ---------------------------------------------------------------------
      1         16           0       -0.019278    0.000001    0.001240
      2          8           0        0.850975    1.226526   -0.001286
      3          8           0        0.851380   -1.226255   -0.000695
      4          8           0       -0.885276   -0.000436   -1.225725
      5          8           0       -0.886972    0.000172    1.226744
 ---------------------------------------------------------------------
                    Distance matrix (angstroms):
                    1          2          3          4          5
     1  S    0.000000
     2  O    1.503899   0.000000
     3  O    1.503913   2.452782   0.000000
     4  O    1.501797   2.453417   2.453427   0.000000
     5  O    1.501584   2.456107   2.456135   2.452469   0.000000
 Stoichiometry    O4S(2-)
 Framework group  C1[X(O4S)]
 Deg. of freedom     9
 Full point group                 C1      NOp   1
 Largest Abelian subgroup         C1      NOp   1
 Largest concise Abelian subgroup C1      NOp   1
                         Standard orientation:                         
 ---------------------------------------------------------------------
 Center     Atomic      Atomic             Coordinates (Angstroms)
 Number     Number       Type             X           Y           Z
 ---------------------------------------------------------------------
      1         16           0        0.001471   -0.000004   -0.000507
      2          8           0       -0.811573    1.230043   -0.296575
      3          8           0       -0.819445   -1.222711   -0.305198
      4          8           0        0.387132   -0.006342    1.450913
      5          8           0        1.240945   -0.000982   -0.848126
 ---------------------------------------------------------------------
 Rotational constants (GHZ):      5.2540959      5.2437268      5.2415515
 Standard basis: 6-311++G(d,p) (5D, 7F)
 There are   118 symmetry adapted basis functions of A   symmetry.
 Integral buffers will be    131072 words long.
 Raffenetti 2 integral format.
 Two-electron integral symmetry is turned on.
   118 basis functions,   194 primitive gaussians,   123 cartesian basis functions
    25 alpha electrons       25 beta electrons
       nuclear repulsion energy       263.0929771518 Hartrees.
 NAtoms=    5 NActive=    5 NUniq=    5 SFac= 7.50D-01 NAtFMM=   80 NAOKFM=F Big=F
 ------------------------------------------------------------------------------
 Polarizable Continuum Model (PCM)
 =================================
 Model                : PCM.
 Atomic radii         : SMD-Coulomb.
 Polarization charges : Total charges.
 Charge compensation  : None.
 Solution method      : Matrix inversion.
 Cavity type          : VdW (van der Waals Surface) (Alpha=1.000).
 Cavity algorithm     : GePol (No added spheres)
                        Default sphere list used, NSphG=    5.
                        Lebedev-Laikov grids with approx.  5.0 points / Ang**2.
                        Smoothing algorithm: Karplus/York (Gamma=1.0000).
                        Polarization charges: spherical gaussians, with
                                              point-specific exponents (IZeta= 3).
                        Self-potential: point-specific (ISelfS= 7).
                        Self-field    : sphere-specific E.n sum rule (ISelfD= 2).
 1st derivatives      : Analytical E(r).r(x)/FMM algorithm (CHGder, D1EAlg=3).
                        Cavity 1st derivative terms included.
 Solvent              : Water, Eps=  78.355300 Eps(inf)=   1.777849
 ------------------------------------------------------------------------------
 Spheres list:
 ISph  on   Nord    Re0     Alpha      Xe            Ye            Ze
    1   S      1    2.490   1.000      0.001471     -0.000004     -0.000507
    2   O      2    1.520   1.000     -0.811573      1.230043     -0.296575
    3   O      3    1.520   1.000     -0.819445     -1.222711     -0.305198
    4   O      4    1.520   1.000      0.387132     -0.006342      1.450913
    5   O      5    1.520   1.000      1.240945     -0.000982     -0.848126
 ------------------------------------------------------------------------------
 ------------------------------------------------------------------------------
 Atomic radii for non-electrostatic terms: SMD-CDS.
 ------------------------------------------------------------------------------
 Nuclear repulsion after PCM non-electrostatic terms =      263.0929096071 Hartrees.
 One-electron integrals computed using PRISM.
 NBasis=   118 RedAO= T  NBF=   118
 NBsUse=   118 1.00D-06 NBFU=   118
 Initial guess read from the read-write file.
 B after Tr=     0.000000    0.000000    0.000000
         Rot=    1.000000    0.000000    0.000000    0.000000 Ang=   0.00 deg.
 Initial guess orbital symmetries:
       Occupied  (A) (A) (A) (A) (A) (A) (A) (A) (A) (A) (A) (A)
                 (A) (A) (A) (A) (A) (A) (A) (A) (A) (A) (A) (A)
                 (A)
       Virtual   (A) (A) (A) (A) (A) (A) (A) (A) (A) (A) (A) (A)
                 (A) (A) (A) (A) (A) (A) (A) (A) (A) (A) (A) (A)
                 (A) (A) (A) (A) (A) (A) (A) (A) (A) (A) (A) (A)
                 (A) (A) (A) (A) (A) (A) (A) (A) (A) (A) (A) (A)
                 (A) (A) (A) (A) (A) (A) (A) (A) (A) (A) (A) (A)
                 (A) (A) (A) (A) (A) (A) (A) (A) (A) (A) (A) (A)
                 (A) (A) (A) (A) (A) (A) (A) (A) (A) (A) (A) (A)
                 (A) (A) (A) (A) (A) (A) (A) (A) (A)
 Requested convergence on RMS density matrix=1.00D-08 within 128 cycles.
 Requested convergence on MAX density matrix=1.00D-06.
 Requested convergence on             energy=1.00D-06.
 No special actions if energy rises.
 Keep R1 ints in memory in canonical form, NReq=32523752.
 Error on total polarization charges =  0.05154
 SCF Done:  E(RM062X) =  -699.352863373     A.U. after   14 cycles
             Convg  =    0.1881D-08             -V/T =  2.0019
 SMD-CDS (non-electrostatic) energy             (kcal/mol) =      -0.04
 (included in total energy above)
 D1PCM: PCM CHGder 1st derivatives, ID1Alg=3 FixD1E=F DoIter=F DoCFld=F I1PDM=0.
 Calling FoFJK, ICntrl=      2127 FMM=F ISym2X=0 I1Cent= 0 IOpClX= 0 NMat=1 NMatS=1 NMatT=0.
 ***** Axes restored to original set *****
 -------------------------------------------------------------------
 Center     Atomic                   Forces (Hartrees/Bohr)
 Number     Number              X              Y              Z
 -------------------------------------------------------------------
      1       16           0.003082870    0.000024704   -0.000927189
      2        8          -0.001073236   -0.000672933    0.000187995
      3        8          -0.001103609    0.000634912    0.000183479
      4        8          -0.000834347    0.000020995   -0.000588933
      5        8          -0.000071677   -0.000007678    0.001144648
 -------------------------------------------------------------------
 Cartesian Forces:  Max     0.003082870 RMS     0.001033375

 GradGradGradGradGradGradGradGradGradGradGradGradGradGradGradGradGradGrad
 Berny optimization.
 Using GEDIIS/GDIIS optimizer.
 Internal  Forces:  Max     0.001170314 RMS     0.000666320
 Search for a local minimum.
 Step number   4 out of a maximum of   24
 All quantities printed in internal units (Hartrees-Bohrs-Radians)
 Mixed Optimization -- En-DIIS/RFO-DIIS
 Update second derivatives using D2CorX and points    1    2    3    4
 DE= -1.57D-04 DEPred=-6.70D-05 R= 2.35D+00
 SS=  1.41D+00  RLast= 2.16D-02 DXNew= 8.4853D-01 6.4727D-02
 Trust test= 2.35D+00 RLast= 2.16D-02 DXMaxT set to 5.05D-01
 The second derivative matrix:
                          R1        R2        R3        R4        A1
           R1           0.57329
           R2           0.04433   0.57313
           R3           0.03623   0.03596   0.33683
           R4           0.03962   0.03929   0.03407   0.32959
           A1           0.00956   0.00945  -0.01858  -0.02477   0.05210
           A2          -0.00221  -0.02363   0.00877  -0.01454  -0.01813
           A3           0.03007  -0.02317  -0.00553   0.02145  -0.02614
           A4          -0.02400  -0.00212   0.00856  -0.01479  -0.01822
           A5          -0.02277   0.03062  -0.00504   0.02203  -0.02596
           A6          -0.00165  -0.00218   0.00830   0.00844   0.03106
           D1           0.00475   0.00495   0.00672  -0.04017   0.04165
           D2          -0.02153  -0.02150   0.03296  -0.00457  -0.02265
           D3           0.00734  -0.02898   0.01644  -0.00234  -0.01135
           D4           0.02886  -0.00748  -0.01652   0.00223   0.01131
                          A2        A3        A4        A5        A6
           A2           0.07770
           A3          -0.00730   0.18128
           A4           0.01273   0.01159   0.07814
           A5           0.01096  -0.11379  -0.00785   0.18120
           A6          -0.07722  -0.04433  -0.07766  -0.04328   0.21813
           D1           0.03837  -0.03492   0.03855  -0.03538  -0.05705
           D2           0.02098  -0.02202   0.02103  -0.02217   0.02924
           D3           0.04433   0.01298  -0.02319  -0.03508   0.01451
           D4           0.02335   0.03500  -0.04422  -0.01291  -0.01473
                          D1        D2        D3        D4
           D1           0.10775
           D2           0.00687   0.06393
           D3           0.00349   0.03199   0.05887
           D4          -0.00338  -0.03194   0.02689   0.05883
 Use linear search instead of GDIIS.
     Eigenvalues ---    0.11440   0.13728   0.15488   0.27815   0.30689
     Eigenvalues ---    0.33013   0.36244   0.54474   0.642111000.00000
     Eigenvalues --- 1000.000001000.000001000.000001000.00000
 RFO step:  Lambda=-2.24701772D-05 EMin= 1.14395865D-01
 Quartic linear search produced a step of  0.02030.
 Iteration  1 RMS(Cart)=  0.00254387 RMS(Int)=  0.00000610
 Iteration  2 RMS(Cart)=  0.00000546 RMS(Int)=  0.00000284
 Iteration  3 RMS(Cart)=  0.00000000 RMS(Int)=  0.00000284
 Variable       Old X    -DE/DX   Delta X   Delta X   Delta X     New X
                                 (Linear)    (Quad)   (Total)
    R1        2.84196  -0.00117   0.00002  -0.00242  -0.00240   2.83955
    R2        2.84198  -0.00116   0.00002  -0.00238  -0.00237   2.83962
    R3        2.83798   0.00096   0.00014   0.00229   0.00244   2.84042
    R4        2.83758   0.00098   0.00011   0.00437   0.00448   2.84206
    A1        1.90708   0.00054   0.00012   0.00377   0.00389   1.91097
    A2        1.90980   0.00009  -0.00017   0.00129   0.00111   1.91091
    A3        1.91310  -0.00053   0.00001  -0.00340  -0.00340   1.90970
    A4        1.90980   0.00010  -0.00017   0.00134   0.00117   1.91096
    A5        1.91312  -0.00056   0.00001  -0.00353  -0.00352   1.90960
    A6        1.91089   0.00037   0.00021   0.00055   0.00076   1.91165
    D1        2.08904   0.00077  -0.00006   0.00620   0.00615   2.09518
    D2       -2.09309   0.00002  -0.00016  -0.00036  -0.00052  -2.09361
    D3        2.09504   0.00001  -0.00008  -0.00017  -0.00026   2.09479
    D4       -2.09505   0.00000   0.00008   0.00018   0.00026  -2.09479
         Item               Value     Threshold  Converged?
 Maximum Force            0.001170     0.000450     NO 
 RMS     Force            0.000666     0.000300     NO 
 Maximum Displacement     0.004079     0.001800     NO 
 RMS     Displacement     0.002544     0.001200     NO 
 Predicted change in Energy=-1.207553D-05
 GradGradGradGradGradGradGradGradGradGradGradGradGradGradGradGradGradGrad

                          Input orientation:                          
 ---------------------------------------------------------------------
 Center     Atomic      Atomic             Coordinates (Angstroms)
 Number     Number       Type             X           Y           Z
 ---------------------------------------------------------------------
      1         16           0       -0.017798    0.000016   -0.000532
      2          8           0        0.849349    1.227184   -0.000104
      3          8           0        0.849744   -1.226914    0.000564
      4          8           0       -0.885483   -0.000405   -1.227883
      5          8           0       -0.884983    0.000127    1.228235
 ---------------------------------------------------------------------
                    Distance matrix (angstroms):
                    1          2          3          4          5
     1  S    0.000000
     2  O    1.502627   0.000000
     3  O    1.502661   2.454099   0.000000
     4  O    1.503086   2.454396   2.454469   0.000000
     5  O    1.503954   2.454057   2.453994   2.456118   0.000000
 Stoichiometry    O4S(2-)
 Framework group  C1[X(O4S)]
 Deg. of freedom     9
 Full point group                 C1      NOp   1
 Largest Abelian subgroup         C1      NOp   1
 Largest concise Abelian subgroup C1      NOp   1
                         Standard orientation:                         
 ---------------------------------------------------------------------
 Center     Atomic      Atomic             Coordinates (Angstroms)
 Number     Number       Type             X           Y           Z
 ---------------------------------------------------------------------
      1         16           0       -0.000485   -0.000004   -0.000080
      2          8           0        0.048171    1.233027   -0.857492
      3          8           0        0.129929   -1.219687   -0.868040
      4          8           0       -1.309517   -0.046757    0.737155
      5          8           0        1.132386    0.033424    0.988537
 ---------------------------------------------------------------------
 Rotational constants (GHZ):      5.2479470      5.2435569      5.2418982
 Standard basis: 6-311++G(d,p) (5D, 7F)
 There are   118 symmetry adapted basis functions of A   symmetry.
 Integral buffers will be    131072 words long.
 Raffenetti 2 integral format.
 Two-electron integral symmetry is turned on.
   118 basis functions,   194 primitive gaussians,   123 cartesian basis functions
    25 alpha electrons       25 beta electrons
       nuclear repulsion energy       263.0431236538 Hartrees.
 NAtoms=    5 NActive=    5 NUniq=    5 SFac= 7.50D-01 NAtFMM=   80 NAOKFM=F Big=F
 ------------------------------------------------------------------------------
 Polarizable Continuum Model (PCM)
 =================================
 Model                : PCM.
 Atomic radii         : SMD-Coulomb.
 Polarization charges : Total charges.
 Charge compensation  : None.
 Solution method      : Matrix inversion.
 Cavity type          : VdW (van der Waals Surface) (Alpha=1.000).
 Cavity algorithm     : GePol (No added spheres)
                        Default sphere list used, NSphG=    5.
                        Lebedev-Laikov grids with approx.  5.0 points / Ang**2.
                        Smoothing algorithm: Karplus/York (Gamma=1.0000).
                        Polarization charges: spherical gaussians, with
                                              point-specific exponents (IZeta= 3).
                        Self-potential: point-specific (ISelfS= 7).
                        Self-field    : sphere-specific E.n sum rule (ISelfD= 2).
 1st derivatives      : Analytical E(r).r(x)/FMM algorithm (CHGder, D1EAlg=3).
                        Cavity 1st derivative terms included.
 Solvent              : Water, Eps=  78.355300 Eps(inf)=   1.777849
 ------------------------------------------------------------------------------
 Spheres list:
 ISph  on   Nord    Re0     Alpha      Xe            Ye            Ze
    1   S      1    2.490   1.000     -0.000485     -0.000004     -0.000080
    2   O      2    1.520   1.000      0.048171      1.233027     -0.857492
    3   O      3    1.520   1.000      0.129929     -1.219687     -0.868040
    4   O      4    1.520   1.000     -1.309517     -0.046757      0.737155
    5   O      5    1.520   1.000      1.132386      0.033424      0.988537
 ------------------------------------------------------------------------------
 ------------------------------------------------------------------------------
 Atomic radii for non-electrostatic terms: SMD-CDS.
 ------------------------------------------------------------------------------
 Nuclear repulsion after PCM non-electrostatic terms =      263.0430542114 Hartrees.
 One-electron integrals computed using PRISM.
 NBasis=   118 RedAO= T  NBF=   118
 NBsUse=   118 1.00D-06 NBFU=   118
 Initial guess read from the read-write file.
 B after Tr=     0.000000    0.000000    0.000000
         Rot=    1.000000    0.000000    0.000000    0.000000 Ang=   0.00 deg.
 Initial guess orbital symmetries:
       Occupied  (A) (A) (A) (A) (A) (A) (A) (A) (A) (A) (A) (A)
                 (A) (A) (A) (A) (A) (A) (A) (A) (A) (A) (A) (A)
                 (A)
       Virtual   (A) (A) (A) (A) (A) (A) (A) (A) (A) (A) (A) (A)
                 (A) (A) (A) (A) (A) (A) (A) (A) (A) (A) (A) (A)
                 (A) (A) (A) (A) (A) (A) (A) (A) (A) (A) (A) (A)
                 (A) (A) (A) (A) (A) (A) (A) (A) (A) (A) (A) (A)
                 (A) (A) (A) (A) (A) (A) (A) (A) (A) (A) (A) (A)
                 (A) (A) (A) (A) (A) (A) (A) (A) (A) (A) (A) (A)
                 (A) (A) (A) (A) (A) (A) (A) (A) (A) (A) (A) (A)
                 (A) (A) (A) (A) (A) (A) (A) (A) (A)
 Requested convergence on RMS density matrix=1.00D-08 within 128 cycles.
 Requested convergence on MAX density matrix=1.00D-06.
 Requested convergence on             energy=1.00D-06.
 No special actions if energy rises.
 Keep R1 ints in memory in canonical form, NReq=32537832.
 Error on total polarization charges =  0.05182
 SCF Done:  E(RM062X) =  -699.352749603     A.U. after   13 cycles
             Convg  =    0.7963D-08             -V/T =  2.0020
 SMD-CDS (non-electrostatic) energy             (kcal/mol) =      -0.04
 (included in total energy above)
 D1PCM: PCM CHGder 1st derivatives, ID1Alg=3 FixD1E=F DoIter=F DoCFld=F I1PDM=0.
 Calling FoFJK, ICntrl=      2127 FMM=F ISym2X=0 I1Cent= 0 IOpClX= 0 NMat=1 NMatS=1 NMatT=0.
 ***** Axes restored to original set *****
 -------------------------------------------------------------------
 Center     Atomic                   Forces (Hartrees/Bohr)
 Number     Number              X              Y              Z
 -------------------------------------------------------------------
      1       16          -0.002088975   -0.000313565    0.000456828
      2        8           0.000563950    0.000332552   -0.000075213
      3        8          -0.000051861    0.000069083   -0.000175921
      4        8           0.000531436    0.000018963    0.001169329
      5        8           0.001045449   -0.000107032   -0.001375023
 -------------------------------------------------------------------
 Cartesian Forces:  Max     0.002088975 RMS     0.000807826

 GradGradGradGradGradGradGradGradGradGradGradGradGradGradGradGradGradGrad
 Berny optimization.
 Using GEDIIS/GDIIS optimizer.
 Internal  Forces:  Max     0.001726279 RMS     0.000603042
 Search for a local minimum.
 Step number   5 out of a maximum of   24
 All quantities printed in internal units (Hartrees-Bohrs-Radians)
 Mixed Optimization -- En-DIIS/RFO-DIIS
 Swaping is turned off.
 Update second derivatives using D2CorX and points    1    2    3    4    5
 DE=  1.14D-04 DEPred=-1.21D-05 R=-9.42D+00
 Trust test=-9.42D+00 RLast= 1.09D-02 DXMaxT set to 2.52D-01
 The second derivative matrix:
                          R1        R2        R3        R4        A1
           R1           0.59212
           R2           0.03648   0.55323
           R3          -0.02196   0.02719   0.45395
           R4          -0.03599   0.02425   0.18342   0.51920
           A1          -0.00162   0.01283   0.00514   0.00753   0.05609
           A2           0.01088  -0.01791  -0.00341  -0.03053  -0.01969
           A3           0.04319  -0.02453  -0.03108  -0.01213  -0.02979
           A4          -0.01308   0.00268   0.00050  -0.02573  -0.01857
           A5          -0.01787   0.02500  -0.01597   0.00623  -0.02508
           A6          -0.03510  -0.01119   0.04122   0.05271   0.03460
           D1           0.01105   0.01949   0.01755  -0.02404   0.04035
           D2          -0.01142  -0.01493   0.01182  -0.03011  -0.03019
           D3           0.01600  -0.02403  -0.00075  -0.02322  -0.01707
           D4           0.02742  -0.00910  -0.01257   0.00689   0.01311
                          A2        A3        A4        A5        A6
           A2           0.07169
           A3          -0.00678   0.18717
           A4           0.00606   0.01088   0.07092
           A5           0.00934  -0.11232  -0.01037   0.17929
           A6          -0.06316  -0.05087  -0.06141  -0.04256   0.19607
           D1           0.03250  -0.03259   0.03327  -0.03008  -0.05104
           D2           0.02628  -0.01731   0.02607  -0.01829   0.01877
           D3           0.04795   0.01727  -0.01987  -0.03174   0.00608
           D4           0.02167   0.03457  -0.04594  -0.01345  -0.01269
                          D1        D2        D3        D4
           D1           0.09789
           D2          -0.00035   0.06590
           D3          -0.00128   0.03346   0.06011
           D4          -0.00092  -0.03244   0.02665   0.05909
     Eigenvalues ---    0.13428   0.13715   0.15408   0.26279   0.27841
     Eigenvalues ---    0.32122   0.52652   0.61509   0.715151000.00000
     Eigenvalues --- 1000.000001000.000001000.000001000.00000
 En-DIIS/RFO-DIIS IScMMF=        0 using points:     5    4
 RFO step:  Lambda=-6.12999570D-06.
 DIIS coeffs:      0.62299      0.37701
 Iteration  1 RMS(Cart)=  0.00076299 RMS(Int)=  0.00000093
 Iteration  2 RMS(Cart)=  0.00000013 RMS(Int)=  0.00000092
 Variable       Old X    -DE/DX   Delta X   Delta X   Delta X     New X
                                  (DIIS)     (GDIIS)  (Total)
    R1        2.83955   0.00060   0.00091  -0.00016   0.00074   2.84030
    R2        2.83962  -0.00009   0.00089  -0.00083   0.00006   2.83968
    R3        2.84042  -0.00126  -0.00092  -0.00062  -0.00153   2.83889
    R4        2.84206  -0.00173  -0.00169  -0.00108  -0.00277   2.83930
    A1        1.91097  -0.00015  -0.00147   0.00093  -0.00054   1.91043
    A2        1.91091   0.00008  -0.00042   0.00033  -0.00009   1.91082
    A3        1.90970   0.00022   0.00128  -0.00068   0.00060   1.91030
    A4        1.91096   0.00003  -0.00044   0.00013  -0.00031   1.91065
    A5        1.90960   0.00002   0.00133  -0.00100   0.00033   1.90993
    A6        1.91165  -0.00021  -0.00029   0.00030   0.00001   1.91166
    D1        2.09518  -0.00011  -0.00232   0.00141  -0.00090   2.09428
    D2       -2.09361   0.00003   0.00020  -0.00011   0.00009  -2.09352
    D3        2.09479   0.00011   0.00010   0.00016   0.00026   2.09505
    D4       -2.09479   0.00008  -0.00010   0.00027   0.00017  -2.09462
         Item               Value     Threshold  Converged?
 Maximum Force            0.001726     0.000450     NO 
 RMS     Force            0.000603     0.000300     NO 
 Maximum Displacement     0.001885     0.001800     NO 
 RMS     Displacement     0.000763     0.001200     YES
 Predicted change in Energy=-3.742655D-06
 GradGradGradGradGradGradGradGradGradGradGradGradGradGradGradGradGradGrad

                          Input orientation:                          
 ---------------------------------------------------------------------
 Center     Atomic      Atomic             Coordinates (Angstroms)
 Number     Number       Type             X           Y           Z
 ---------------------------------------------------------------------
      1         16           0       -0.018244    0.000041   -0.000194
      2          8           0        0.849533    1.227246   -0.000211
      3          8           0        0.849572   -1.226736    0.000478
      4          8           0       -0.885249   -0.000527   -1.227031
      5          8           0       -0.884783   -0.000016    1.227237
 ---------------------------------------------------------------------
                    Distance matrix (angstroms):
                    1          2          3          4          5
     1  S    0.000000
     2  O    1.503020   0.000000
     3  O    1.502694   2.453982   0.000000
     4  O    1.502274   2.453973   2.453564   0.000000
     5  O    1.502491   2.453702   2.453114   2.454268   0.000000
 Stoichiometry    O4S(2-)
 Framework group  C1[X(O4S)]
 Deg. of freedom     9
 Full point group                 C1      NOp   1
 Largest Abelian subgroup         C1      NOp   1
 Largest concise Abelian subgroup C1      NOp   1
                         Standard orientation:                         
 ---------------------------------------------------------------------
 Center     Atomic      Atomic             Coordinates (Angstroms)
 Number     Number       Type             X           Y           Z
 ---------------------------------------------------------------------
      1         16           0        0.000267   -0.000082   -0.000288
      2          8           0       -0.057604    1.441026    0.422710
      3          8           0       -0.247220   -0.881836    1.191076
      4          8           0        1.356536   -0.300248   -0.572358
      5          8           0       -1.052246   -0.258777   -1.040852
 ---------------------------------------------------------------------
 Rotational constants (GHZ):      5.2488781      5.2484071      5.2457974
 Standard basis: 6-311++G(d,p) (5D, 7F)
 There are   118 symmetry adapted basis functions of A   symmetry.
 Integral buffers will be    131072 words long.
 Raffenetti 2 integral format.
 Two-electron integral symmetry is turned on.
   118 basis functions,   194 primitive gaussians,   123 cartesian basis functions
    25 alpha electrons       25 beta electrons
       nuclear repulsion energy       263.1240259212 Hartrees.
 NAtoms=    5 NActive=    5 NUniq=    5 SFac= 7.50D-01 NAtFMM=   80 NAOKFM=F Big=F
 ------------------------------------------------------------------------------
 Polarizable Continuum Model (PCM)
 =================================
 Model                : PCM.
 Atomic radii         : SMD-Coulomb.
 Polarization charges : Total charges.
 Charge compensation  : None.
 Solution method      : Matrix inversion.
 Cavity type          : VdW (van der Waals Surface) (Alpha=1.000).
 Cavity algorithm     : GePol (No added spheres)
                        Default sphere list used, NSphG=    5.
                        Lebedev-Laikov grids with approx.  5.0 points / Ang**2.
                        Smoothing algorithm: Karplus/York (Gamma=1.0000).
                        Polarization charges: spherical gaussians, with
                                              point-specific exponents (IZeta= 3).
                        Self-potential: point-specific (ISelfS= 7).
                        Self-field    : sphere-specific E.n sum rule (ISelfD= 2).
 1st derivatives      : Analytical E(r).r(x)/FMM algorithm (CHGder, D1EAlg=3).
                        Cavity 1st derivative terms included.
 Solvent              : Water, Eps=  78.355300 Eps(inf)=   1.777849
 ------------------------------------------------------------------------------
 Spheres list:
 ISph  on   Nord    Re0     Alpha      Xe            Ye            Ze
    1   S      1    2.490   1.000      0.000267     -0.000082     -0.000288
    2   O      2    1.520   1.000     -0.057604      1.441026      0.422710
    3   O      3    1.520   1.000     -0.247220     -0.881836      1.191076
    4   O      4    1.520   1.000      1.356536     -0.300248     -0.572358
[...]
     2  O    0.245587   8.911138  -0.155780  -0.155248  -0.156481
     3  O    0.245226  -0.155780   8.911353  -0.156144  -0.155324
     4  O    0.245778  -0.155248  -0.156144   8.910230  -0.155678
     5  O    0.246859  -0.156481  -0.155324  -0.155678   8.910459
 Mulliken atomic charges:
              1
     1  S    0.757318
     2  O   -0.689215
     3  O   -0.689331
     4  O   -0.688937
     5  O   -0.689834
 Sum of Mulliken atomic charges =  -2.00000
 Mulliken charges with hydrogens summed into heavy atoms:
              1
     1  S    0.757318
     2  O   -0.689215
     3  O   -0.689331
     4  O   -0.688937
     5  O   -0.689834
 Sum of Mulliken charges with hydrogens summed into heavy atoms =  -2.00000
 APT atomic charges:
              1
     1  S    3.849551
     2  O   -1.459119
     3  O   -1.467879
     4  O   -1.460690
     5  O   -1.461862
 Sum of APT charges=  -2.00000
 APT Atomic charges with hydrogens summed into heavy atoms:
              1
     1  S    3.849551
     2  O   -1.459119
     3  O   -1.467879
     4  O   -1.460690
     5  O   -1.461862
 Sum of APT charges=  -2.00000
 Electronic spatial extent (au):  <R**2>=            369.8922
 Charge=             -2.0000 electrons
 Dipole moment (field-independent basis, Debye):
    X=             -0.0017    Y=             -0.0067    Z=             -0.0003  Tot=              0.0070
 Quadrupole moment (field-independent basis, Debye-Ang):
   XX=            -50.2593   YY=            -50.2411   ZZ=            -50.2392
   XY=             -0.0032   XZ=             -0.0019   YZ=              0.0036
 Traceless Quadrupole moment (field-independent basis, Debye-Ang):
   XX=             -0.0128   YY=              0.0054   ZZ=              0.0073
   XY=             -0.0032   XZ=             -0.0019   YZ=              0.0036
 Octapole moment (field-independent basis, Debye-Ang**2):
  XXX=              8.2814  YYY=             -2.6159  ZZZ=             -1.7722  XYY=             -3.5400
  XXY=             -1.2424  XXZ=             -7.3264  XZZ=             -4.7279  YZZ=              3.8194
  YYZ=              9.0921  XYZ=              2.9240
 Hexadecapole moment (field-independent basis, Debye-Ang**3):
 XXXX=           -183.8672 YYYY=           -182.2102 ZZZZ=           -177.9129 XXXY=              1.8479
 XXXZ=              2.0103 YYYX=             -2.7428 YYYZ=             -0.0483 ZZZX=             -3.6865
 ZZZY=             -0.9538 XXYY=            -57.3748 XXZZ=            -61.5722 YYZZ=            -62.9960
 XXYZ=              1.0303 YYXZ=              1.6752 ZZXY=              0.8736
 N-N= 2.632231991497D+02 E-N=-2.207347127827D+03  KE= 6.979989424642D+02
  Exact polarizability:  49.096   0.031  49.040   0.020  -0.044  49.007
 Approx polarizability:  41.061   0.000  41.029  -0.008   0.000  41.016
 D2PCM: PCM CHGder 2nd derivatives, FixD1E=F FixD2E=F DoIter=F DoCFld=F I1PDM=0
 Calling FoFJK, ICntrl=    100127 FMM=F ISym2X=0 I1Cent= 0 IOpClX= 0 NMat=1 NMatS=1 NMatT=0.
 Full mass-weighted force constant matrix:
 Low frequencies ---  -41.5811   -0.0018    0.0018    0.0019   10.8358   55.8617
 Low frequencies ---  418.0019  419.0380  572.7738
 Diagonal vibrational polarizability:
       32.6599079      32.7961113      32.2781802
 Harmonic frequencies (cm**-1), IR intensities (KM/Mole), Raman scattering
 activities (A**4/AMU), depolarization ratios for plane and unpolarized
 incident light, reduced masses (AMU), force constants (mDyne/A),
 and normal coordinates:
                     1                      2                      3
                     A                      A                      A
 Frequencies --   417.8585               418.9873               572.7223
 Red. masses --    15.9984                15.9953                18.1988
 Frc consts  --     1.6458                 1.6544                 3.5171
 IR Inten    --     0.3153                 0.0329               140.8048
  Atom  AN      X      Y      Z        X      Y      Z        X      Y      Z
     1  16     0.00  -0.01   0.01     0.00   0.00   0.00     0.28  -0.16  -0.18
     2   8    -0.28   0.28   0.30     0.27   0.41  -0.11    -0.28   0.18   0.35
     3   8     0.08  -0.32   0.35    -0.14  -0.37  -0.30     0.41   0.13  -0.03
     4   8    -0.11   0.33  -0.38    -0.49  -0.09   0.07    -0.34  -0.25  -0.17
     5   8     0.31  -0.27  -0.29     0.36   0.05   0.35    -0.35   0.26   0.21
                     4                      5                      6
                     A                      A                      A
 Frequencies --   576.6802               581.3037               955.4016
 Red. masses --    18.1302                18.1493                16.0096
 Frc consts  --     3.5524                 3.6134                 8.6100
 IR Inten    --   134.6638               136.3162                 3.3227
  Atom  AN      X      Y      Z        X      Y      Z        X      Y      Z
     1  16    -0.24  -0.19  -0.21     0.00  -0.27   0.25     0.02   0.02  -0.02
     2   8    -0.08   0.38  -0.24     0.37   0.23   0.13    -0.30   0.09  -0.38
     3   8    -0.01   0.29   0.38    -0.12   0.38  -0.30     0.44  -0.05  -0.15
     4   8     0.35  -0.24  -0.16     0.00   0.28  -0.37    -0.02   0.38   0.34
     5   8     0.21  -0.05   0.42    -0.26  -0.34   0.05    -0.16  -0.45   0.23
                     7                      8                      9
                     A                      A                      A
 Frequencies --  1031.3383              1042.0762              1046.4123
 Red. masses --    20.3372                20.3216                20.3619
 Frc consts  --    12.7451                13.0019                13.1363
 IR Inten    --   859.6464               858.4424               864.7867
  Atom  AN      X      Y      Z        X      Y      Z        X      Y      Z
     1  16     0.10   0.48  -0.19    -0.22   0.21   0.42     0.46   0.00   0.25
     2   8     0.16  -0.08   0.23    -0.13   0.04  -0.19    -0.39   0.13  -0.50
     3   8    -0.17  -0.01   0.07     0.50  -0.06  -0.19    -0.49   0.05   0.15
     4   8     0.01  -0.27  -0.22     0.04  -0.45  -0.41    -0.01  -0.15  -0.14
     5   8    -0.20  -0.60   0.30     0.03   0.05  -0.05    -0.03  -0.03   0.00

 -------------------
 - Thermochemistry -
 -------------------
 Temperature   298.150 Kelvin.  Pressure   1.00000 Atm.
 Atom     1 has atomic number 16 and mass  31.97207
 Atom     2 has atomic number  8 and mass  15.99491
 Atom     3 has atomic number  8 and mass  15.99491
 Atom     4 has atomic number  8 and mass  15.99491
 Atom     5 has atomic number  8 and mass  15.99491
 Molecular mass:    95.95173 amu.
 Principal axes and moments of inertia in atomic units:
                           1         2         3
     Eigenvalues --   343.46382 343.66230 343.83005
           X            1.00000   0.00000   0.00000
           Y            0.00000   1.00000   0.00000
           Z            0.00000   0.00000   1.00000
 This molecule is an asymmetric top.
 Rotational symmetry number  1.
 Rotational temperatures (Kelvin)      0.25218     0.25203     0.25191
 Rotational constants (GHZ):           5.25453     5.25150     5.24893
 Zero-point vibrational energy      39732.6 (Joules/Mol)
                                    9.49633 (Kcal/Mol)
 Warning -- explicit consideration of   5 degrees of freedom as
           vibrations may cause significant error
 Vibrational temperatures:    601.20   602.83   824.02   829.71   836.37
          (Kelvin)           1374.61  1483.86  1499.31  1505.55
 
 Zero-point correction=                           0.015133 (Hartree/Particle)
 Thermal correction to Energy=                    0.019207
 Thermal correction to Enthalpy=                  0.020152
 Thermal correction to Gibbs Free Energy=        -0.012359
 Sum of electronic and zero-point Energies=           -699.337613
 Sum of electronic and thermal Energies=              -699.333539
 Sum of electronic and thermal Enthalpies=            -699.332595
 Sum of electronic and thermal Free Energies=         -699.365105
 
                     E (Thermal)             CV                S
                      KCal/Mol        Cal/Mol-Kelvin    Cal/Mol-Kelvin
 Total                   12.053             13.501             68.424
 Electronic               0.000              0.000              0.000
 Translational            0.889              2.981             39.595
 Rotational               0.889              2.981             25.210
 Vibrational             10.275              7.539              3.619
 Vibration     1          0.781              1.431              0.899
 Vibration     2          0.782              1.429              0.895
 Vibration     3          0.929              1.090              0.499
 Vibration     4          0.933              1.082              0.492
 Vibration     5          0.938              1.072              0.483
                       Q            Log10(Q)             Ln(Q)
 Total Bot       0.483668D+06          5.684548         13.089155
 Total V=0       0.441976D+13         12.645398         29.117106
 Vib (Bot)       0.181547D-06         -6.741012        -15.521753
 Vib (Bot)    1  0.420899D+00         -0.375822         -0.865362
 Vib (Bot)    2  0.419405D+00         -0.377367         -0.868919
 Vib (Bot)    3  0.268003D+00         -0.571860         -1.316757
 Vib (Bot)    4  0.265118D+00         -0.576560         -1.327579
 Vib (Bot)    5  0.261796D+00         -0.582037         -1.340189
 Vib (V=0)       0.165897D+01          0.219839          0.506198
 Vib (V=0)    1  0.115357D+01          0.062045          0.142863
 Vib (V=0)    2  0.115261D+01          0.061682          0.142029
 Vib (V=0)    3  0.106730D+01          0.028285          0.065129
 Vib (V=0)    4  0.106594D+01          0.027733          0.063857
 Vib (V=0)    5  0.106439D+01          0.027101          0.062403
 Electronic      0.100000D+01          0.000000          0.000000
 Translational   0.369432D+08          7.567534         17.424892
 Rotational      0.721149D+05          4.858025         11.186015
 ***** Axes restored to original set *****
 -------------------------------------------------------------------
 Center     Atomic                   Forces (Hartrees/Bohr)
 Number     Number              X              Y              Z
 -------------------------------------------------------------------
      1       16          -0.000942471    0.000805024    0.000640098
      2        8           0.000456885   -0.000022564    0.000007718
      3        8           0.000229953   -0.000379031   -0.000158327
      4        8           0.000078515   -0.000243856   -0.000354356
      5        8           0.000177119   -0.000159573   -0.000135134
 -------------------------------------------------------------------
 Cartesian Forces:  Max     0.000942471 RMS     0.000419782

 GradGradGradGradGradGradGradGradGradGradGradGradGradGradGradGradGradGrad
 Berny optimization.
 Internal  Forces:  Max     0.000442209 RMS     0.000248729
 Search for a local minimum.
 Step number   1 out of a maximum of    2
 All quantities printed in internal units (Hartrees-Bohrs-Radians)
 Second derivative matrix not updated -- analytic derivatives used.
 The second derivative matrix:
                          R1        R2        R3        R4        A1
           R1           0.45287
           R2           0.03426   0.45537
           R3           0.03422   0.03461   0.44935
           R4           0.03450   0.03443   0.03432   0.44120
           A1           0.00799   0.00907  -0.00543  -0.01090   0.04814
           A2           0.01402  -0.00335   0.01652  -0.02388  -0.01342
           A3           0.02380  -0.02005  -0.02223   0.01590  -0.02917
           A4          -0.00335   0.01305   0.01468  -0.02419  -0.01361
           A5          -0.01993   0.02381  -0.02173   0.01711  -0.02993
           A6          -0.02251  -0.02257   0.01820   0.02600   0.03800
           D1           0.01632   0.01706   0.01247  -0.04281   0.04240
           D2          -0.01216  -0.01339   0.03355  -0.00685  -0.02278
           D3           0.01796  -0.03014   0.01773  -0.00364  -0.01105
           D4           0.03012  -0.01675  -0.01581   0.00321   0.01172
                          A2        A3        A4        A5        A6
           A2           0.09440
           A3          -0.05401   0.18624
           A4           0.00651   0.03478   0.09603
           A5           0.03406  -0.07810  -0.05559   0.18774
           A6          -0.06760  -0.05970  -0.06820  -0.05827   0.21593
           D1           0.04542  -0.04753   0.04615  -0.04983  -0.03667
           D2           0.02867  -0.03056   0.02937  -0.03037   0.02567
           D3           0.04125   0.01129  -0.01241  -0.04163   0.01259
           D4           0.01258   0.04185  -0.04177  -0.01126  -0.01308
                          D1        D2        D3        D4
           D1           0.10806
           D2           0.00767   0.06517
           D3           0.00415   0.03208   0.06508
           D4          -0.00352  -0.03309   0.03299   0.06609
     Eigenvalues ---    0.12028   0.13607   0.21316   0.29226   0.29454
     Eigenvalues ---    0.43778   0.44201   0.44240   0.553171000.00000
     Eigenvalues --- 1000.000001000.000001000.000001000.00000
 Angle between quadratic step and forces=  24.70 degrees.
 Linear search not attempted -- first point.
 Iteration  1 RMS(Cart)=  0.00092428 RMS(Int)=  0.00000133
 Iteration  2 RMS(Cart)=  0.00000097 RMS(Int)=  0.00000095
 Variable       Old X    -DE/DX   Delta X   Delta X   Delta X     New X
                                 (Linear)    (Quad)   (Total)
    R1        2.83843   0.00025   0.00000   0.00036   0.00036   2.83880
    R2        2.83900   0.00044   0.00000   0.00153   0.00153   2.84053
    R3        2.83756   0.00024   0.00000   0.00042   0.00042   2.83798
    R4        2.83888  -0.00021   0.00000  -0.00104  -0.00104   2.83784
    A1        1.91165  -0.00013   0.00000  -0.00130  -0.00130   1.91034
    A2        1.91014   0.00002   0.00000   0.00086   0.00086   1.91100
    A3        1.90966   0.00018   0.00000   0.00110   0.00110   1.91076
    A4        1.91084  -0.00030   0.00000  -0.00180  -0.00180   1.90904
    A5        1.91071  -0.00007   0.00000  -0.00016  -0.00016   1.91055
    A6        1.91081   0.00029   0.00000   0.00130   0.00130   1.91211
    D1        2.09546  -0.00033   0.00000  -0.00217  -0.00217   2.09329
    D2       -2.09509   0.00008   0.00000   0.00102   0.00102  -2.09407
    D3        2.09330   0.00032   0.00000   0.00252   0.00252   2.09582
    D4       -2.09480   0.00023   0.00000   0.00150   0.00150  -2.09330
         Item               Value     Threshold  Converged?
 Maximum Force            0.000442     0.000450     YES
 RMS     Force            0.000249     0.000300     YES
 Maximum Displacement     0.001504     0.001800     YES
 RMS     Displacement     0.000924     0.001200     YES
 Predicted change in Energy=-2.183123D-06
 Optimization completed.
    -- Stationary point found.
                           ----------------------------
                           !   Optimized Parameters   !
                           ! (Angstroms and Degrees)  !
 --------------------------                            --------------------------
 ! Name  Definition              Value          Derivative Info.                !
 --------------------------------------------------------------------------------
 ! R1    R(1,2)                  1.502          -DE/DX =    0.0002              !
 ! R2    R(1,3)                  1.5023         -DE/DX =    0.0004              !
 ! R3    R(1,4)                  1.5016         -DE/DX =    0.0002              !
 ! R4    R(1,5)                  1.5023         -DE/DX =   -0.0002              !
 ! A1    A(2,1,3)              109.5293         -DE/DX =   -0.0001              !
 ! A2    A(2,1,4)              109.443          -DE/DX =    0.0                 !
 ! A3    A(2,1,5)              109.4152         -DE/DX =    0.0002              !
 ! A4    A(3,1,4)              109.4828         -DE/DX =   -0.0003              !
 ! A5    A(3,1,5)              109.4757         -DE/DX =   -0.0001              !
 ! A6    A(4,1,5)              109.4813         -DE/DX =    0.0003              !
 ! D1    D(2,1,4,3)            120.0609         -DE/DX =   -0.0003              !
 ! D2    D(2,1,5,3)           -120.0396         -DE/DX =    0.0001              !
 ! D3    D(2,1,5,4)            119.9373         -DE/DX =    0.0003              !
 ! D4    D(3,1,5,4)           -120.0231         -DE/DX =    0.0002              !
 --------------------------------------------------------------------------------
 GradGradGradGradGradGradGradGradGradGradGradGradGradGradGradGradGradGrad

 1\1\GINC-NODE60\Freq\RM062X\6-311++G(d,p)\O4S1(2-)\XIAO53\09-Oct-2015\
 0\\#N Geom=AllCheck Guess=TCheck SCRF=Check GenChk RM062X/6-311++G(d,p
 ) Freq\\SO4-2_m_prodcut\\-2,1\S,-0.017689724,-0.0002524936,-0.00016457
 92\O,0.8484243006,1.2269204946,-0.0002627753\O,0.8495265168,-1.2270165
 003,0.0001798986\O,-0.884712579,-0.0001995314,-1.2261263341\O,-0.88471
 95144,0.0005560307,1.22665279\\Version=EM64L-G09RevA.02\State=1-A\HF=-
 699.3527463\RMSD=4.414e-10\RMSF=4.198e-04\ZeroPoint=0.0151334\Thermal=
 0.0192075\Dipole=0.0003334,-0.0001751,-0.0027126\DipoleDeriv=3.8462355
 ,-0.0073917,-0.005483,-0.0059039,3.8522676,0.0062823,-0.0003647,0.0098
 282,3.8501495,-1.4614662,-0.5229753,-0.0004596,-0.5244042,-1.8271343,0
 .000386,-0.0006394,-0.0004332,-1.0887573,-1.4654161,0.5271611,0.003055
 9,0.5285554,-1.8428338,-0.0021899,0.000722,-0.0011085,-1.0953876,-1.46
 06881,-0.000102,-0.5177857,-0.0008149,-1.090971,-0.0038281,-0.520771,-
 0.0048386,-1.8304113,-1.4586651,0.003308,0.5206724,0.0025676,-1.091328
 6,-0.0006503,0.5210531,-0.0034479,-1.8355933\Polar=49.0126253,0.000095
 8,49.0911181,-0.0541251,0.0269689,49.0394168\PG=C01 [X(O4S1)]\NImag=0\
 \0.65606154,0.00404358,0.66160441,0.00427722,0.00355628,0.65085173,-0.
 16554171,-0.12689050,0.00051272,0.19711073,-0.12725466,-0.25459498,-0.
 00287151,0.18125652,0.32441040,0.00070734,-0.00245245,-0.07457461,-0.0
 0073525,0.00274444,0.06829237,-0.16712332,0.12500317,0.00136404,0.0137
 1494,-0.01152885,0.00005963,0.19883969,0.12482637,-0.25978245,0.001927
 67,0.01163001,-0.06086437,0.00000159,-0.17940711,0.32990802,0.00104703
 ,0.00225535,-0.07879533,0.00006664,-0.00001129,0.01552394,-0.00127291,
 -0.00208929,0.07218560,-0.16498709,-0.00150058,-0.12755311,-0.02258834
 ,-0.02113557,-0.03294581,-0.02271677,0.02147573,-0.03262748,0.19651786
 ,-0.00095590,-0.07529189,-0.00118960,-0.03310915,-0.00443920,-0.026687
 17,0.03289777,-0.00459055,0.02632936,0.00112331,0.06878432,-0.12734742
 ,-0.00179151,-0.24914095,-0.02133891,-0.01001941,-0.00451405,-0.021339
 45,0.01027254,-0.00437779,0.18159365,0.00160599,0.31895751,-0.15840941
 ,-0.00065568,0.12139914,-0.02269562,-0.02133743,0.03291409,-0.02271454
 ,0.02147499,0.03278673,0.01377433,0.00004397,-0.01156786,0.19004524,-0
 .00065939,-0.07193510,-0.00142284,-0.03288688,-0.00451186,0.02639358,0
 .03303502,-0.00467066,-0.02648412,0.00003711,0.01553731,-0.00006760,0.
 00047414,0.06558030,0.12131584,-0.00156768,-0.24834083,0.02149481,0.01
 015778,-0.00472764,0.02118870,-0.01011250,-0.00453641,0.01153275,-0.00
 005857,-0.06092471,-0.17553210,0.00158097,0.31852961\\0.00094247,-0.00
 080502,-0.00064010,-0.00045688,0.00002256,-0.00000772,-0.00022995,0.00
 037903,0.00015833,-0.00007851,0.00024386,0.00035436,-0.00017712,0.0001
 5957,0.00013513\\\@


 The impersonal hand of government can
 never replace the helping hand of a neighbor.
                        -- Hubert H. Humphrey
 Job cpu time:  0 days  0 hours  5 minutes 17.7 seconds.
 File lengths (MBytes):  RWF=     20 Int=      0 D2E=      0 Chk=      5 Scr=      1
 Normal termination of Gaussian 09 at Fri Oct  9 01:31:41 2015.

g09 job started: Fri Oct 9 01:23:23 CST 2015
g09 job finished: Fri Oct 9 01:31:41 CST 2015
Elapsed time: 498
