 Entering Gaussian System, Link 0=/home/hj122/Linux/g09/g09
 Input=SO4-_vert.gjf
 Output=SO4-_vert.log
 Initial command:
 /home/hj122/Linux/g09/l1.exe /tmp/g09/Gau-2082.inp -scrdir=/tmp/g09/
 Entering Link 1 = /home/hj122/Linux/g09/l1.exe PID=      2083.
  
 Copyright (c) 1988,1990,1992,1993,1995,1998,2003,2009,2011,
            Gaussian, Inc.  All Rights Reserved.
  
 This is part of the Gaussian(R) 09 program.  It is based on
 the Gaussian(R) 03 system (copyright 2003, Gaussian, Inc.),
 the Gaussian(R) 98 system (copyright 1998, Gaussian, Inc.),
 the Gaussian(R) 94 system (copyright 1995, Gaussian, Inc.),
 the Gaussian 92(TM) system (copyright 1992, Gaussian, Inc.),
 the Gaussian 90(TM) system (copyright 1990, Gaussian, Inc.),
 the Gaussian 88(TM) system (copyright 1988, Gaussian, Inc.),
 the Gaussian 86(TM) system (copyright 1986, Carnegie Mellon
 University), and the Gaussian 82(TM) system (copyright 1983,
 Carnegie Mellon University). Gaussian is a federally registered
 trademark of Gaussian, Inc.
  
 This software contains proprietary and confidential information,
 including trade secrets, belonging to Gaussian, Inc.
  
 This software is provided under written license and may be
 used, copied, transmitted, or stored only in accord with that
 written license.
  
 The following legend is applicable only to US Government
 contracts under FAR:
  
                    RESTRICTED RIGHTS LEGEND
  
 Use, reproduction and disclosure by the US Government is
 subject to restrictions as set forth in subparagraphs (a)
 and (c) of the Commercial Computer Software - Restricted
 Rights clause in FAR 52.227-19.
  
 Gaussian, Inc.
 340 Quinnipiac St., Bldg. 40, Wallingford CT 06492
  
  
 ---------------------------------------------------------------
 Warning -- This program may not be used in any manner that
 competes with the business of Gaussian, Inc. or will provide
 assistance to any competitor of Gaussian, Inc.  The licensee
 of this program is prohibited from giving any competitor of
 Gaussian, Inc. access to this program.  By using this program,
 the user acknowledges that Gaussian, Inc. is engaged in the
 business of creating and licensing software in the field of
 computational chemistry and represents and warrants to the
 licensee that it is not a competitor of Gaussian, Inc. and that
 it will not use this program in any manner prohibited above.
 ---------------------------------------------------------------
  

 Cite this work as:
 Gaussian 09, Revision C.01,
 M. J. Frisch, G. W. Trucks, H. B. Schlegel, G. E. Scuseria, 
 M. A. Robb, J. R. Cheeseman, G. Scalmani, V. Barone, B. Mennucci, 
 G. A. Petersson, H. Nakatsuji, M. Caricato, X. Li, H. P. Hratchian, 
 A. F. Izmaylov, J. Bloino, G. Zheng, J. L. Sonnenberg, M. Hada, 
 M. Ehara, K. Toyota, R. Fukuda, J. Hasegawa, M. Ishida, T. Nakajima, 
 Y. Honda, O. Kitao, H. Nakai, T. Vreven, J. A. Montgomery, Jr., 
 J. E. Peralta, F. Ogliaro, M. Bearpark, J. J. Heyd, E. Brothers, 
 K. N. Kudin, V. N. Staroverov, T. Keith, R. Kobayashi, J. Normand, 
 K. Raghavachari, A. Rendell, J. C. Burant, S. S. Iyengar, J. Tomasi, 
 M. Cossi, N. Rega, J. M. Millam, M. Klene, J. E. Knox, J. B. Cross, 
 V. Bakken, C. Adamo, J. Jaramillo, R. Gomperts, R. E. Stratmann, 
 O. Yazyev, A. J. Austin, R. Cammi, C. Pomelli, J. W. Ochterski, 
 R. L. Martin, K. Morokuma, V. G. Zakrzewski, G. A. Voth, 
 P. Salvador, J. J. Dannenberg, S. Dapprich, A. D. Daniels, 
 O. Farkas, J. B. Foresman, J. V. Ortiz, J. Cioslowski, 
 and D. J. Fox, Gaussian, Inc., Wallingford CT, 2010.
 
 ******************************************
 Gaussian 09:  EM64L-G09RevC.01 23-Sep-2011
                11-Nov-2015 
 ******************************************
 %nprocshared=8
 Will use up to    8 processors via shared memory.
 %mem=8GB
 %chk=SO4-_vert.chk
 ----------------------------------------------
 # 6-311++g(d,p) scrf=(smd,solvent=water) m062x
 ----------------------------------------------
 1/38=1/1;
 2/12=2,17=6,18=5,40=1/2;
 3/5=4,6=6,7=1111,11=2,16=1,25=1,30=1,70=32201,72=1,74=-55/1,2,3;
 4//1;
 5/5=2,38=5,53=1/2;
 6/7=2,8=2,9=2,10=2,28=1/1;
 99/5=1,9=1/99;
 ---------
 SO4-_vert
 ---------
 Symbolic Z-matrix:
 Charge = -2 Multiplicity = 1
 S                     0.08456   0.        0.00024 
 O                     0.87953   1.22356  -0.00026 
 O                     0.87954  -1.22355  -0.00025 
 O                    -0.96429  -0.00001  -1.10363 
 O                    -0.96389  0.         1.10366 
 
                          Input orientation:                          
 ---------------------------------------------------------------------
 Center     Atomic      Atomic             Coordinates (Angstroms)
 Number     Number       Type             X           Y           Z
 ---------------------------------------------------------------------
      1         16           0        0.084558    0.000000    0.000239
      2          8           0        0.879526    1.223559   -0.000256
      3          8           0        0.879535   -1.223553   -0.000251
      4          8           0       -0.964285   -0.000006   -1.103629
      5          8           0       -0.963892   -0.000001    1.103658
 ---------------------------------------------------------------------
                    Distance matrix (angstroms):
                    1          2          3          4          5
     1  S    0.000000
     2  O    1.459134   0.000000
     3  O    1.459134   2.447112   0.000000
     4  O    1.522694   2.472687   2.472687   0.000000
     5  O    1.522098   2.472633   2.472634   2.207287   0.000000
 Stoichiometry    O4S(2-)
 Framework group  C1[X(O4S)]
 Deg. of freedom     9
 Full point group                 C1      NOp   1
 Largest Abelian subgroup         C1      NOp   1
 Largest concise Abelian subgroup C1      NOp   1
                         Standard orientation:                         
 ---------------------------------------------------------------------
 Center     Atomic      Atomic             Coordinates (Angstroms)
 Number     Number       Type             X           Y           Z
 ---------------------------------------------------------------------
      1         16           0        0.084558    0.000000    0.000239
      2          8           0        0.879529    1.223557   -0.000256
      3          8           0        0.879532   -1.223555   -0.000251
      4          8           0       -0.964285   -0.000004   -1.103629
      5          8           0       -0.963892    0.000001    1.103658
 ---------------------------------------------------------------------
 Rotational constants (GHZ):      5.8185732      5.3951336      4.9257112
 Standard basis: 6-311++G(d,p) (5D, 7F)
 There are   118 symmetry adapted basis functions of A   symmetry.
 Integral buffers will be    131072 words long.
 Raffenetti 2 integral format.
 Two-electron integral symmetry is turned on.
   118 basis functions,   194 primitive gaussians,   123 cartesian basis functions
    25 alpha electrons       25 beta electrons
       nuclear repulsion energy       265.7967027576 Hartrees.
 NAtoms=    5 NActive=    5 NUniq=    5 SFac= 7.50D-01 NAtFMM=   80 NAOKFM=F Big=F
 ------------------------------------------------------------------------------
 Polarizable Continuum Model (PCM)
 =================================
 Model                : PCM.
 Atomic radii         : SMD-Coulomb.
 Polarization charges : Total charges.
 Charge compensation  : None.
 Solution method      : Matrix inversion.
 Cavity type          : VdW (van der Waals Surface) (Alpha=1.000).
 Cavity algorithm     : GePol (No added spheres)
                        Default sphere list used, NSphG=    5.
                        Lebedev-Laikov grids with approx.  5.0 points / Ang**2.
                        Smoothing algorithm: Karplus/York (Gamma=1.0000).
                        Polarization charges: spherical gaussians, with
                                              point-specific exponents (IZeta= 3).
                        Self-potential: point-specific (ISelfS= 7).
                        Self-field    : sphere-specific E.n sum rule (ISelfD= 2).
 Solvent              : Water, Eps=  78.355300 Eps(inf)=   1.777849
 ------------------------------------------------------------------------------
 Spheres list:
 ISph  on   Nord    Re0     Alpha      Xe            Ye            Ze
    1   S      1    2.490   1.000      0.084558      0.000000      0.000239
    2   O      2    1.520   1.000      0.879529      1.223557     -0.000256
    3   O      3    1.520   1.000      0.879532     -1.223555     -0.000251
    4   O      4    1.520   1.000     -0.964285     -0.000004     -1.103629
    5   O      5    1.520   1.000     -0.963892      0.000001      1.103658
 ------------------------------------------------------------------------------
 ------------------------------------------------------------------------------
 Atomic radii for non-electrostatic terms: SMD-CDS.
 ------------------------------------------------------------------------------
 Nuclear repulsion after PCM non-electrostatic terms =      265.7966244459 Hartrees.
 One-electron integrals computed using PRISM.
 NBasis=   118 RedAO= T  NBF=   118
 NBsUse=   118 1.00D-06 NBFU=   118
 Harris functional with IExCor= 1009 diagonalized for initial guess.
 ExpMin= 4.05D-02 ExpMax= 9.34D+04 ExpMxC= 3.17D+03 IAcc=2 IRadAn=         0 AccDes= 0.00D+00
 HarFok:  IExCor= 1009 AccDes= 0.00D+00 IRadAn=         0 IDoV= 1
 ScaDFX=  1.000000  1.000000  1.000000  1.000000
 FoFCou: FMM=F IPFlag=           0 FMFlag=      100000 FMFlg1=           0
         NFxFlg=           0 DoJE=T BraDBF=F KetDBF=T FulRan=T
         Omega=  0.000000  0.000000  1.000000  0.000000  0.000000 ICntrl=     500 IOpCl=  0
         NMat0=    1 NMatS0=    1 NMatT0=    0 NMatD0=    1 NMtDS0=    0 NMtDT0=    0
         I1Cent=           4 NGrid=           0.
 Petite list used in FoFCou.
 Initial guess orbital symmetries:
       Occupied  (A) (A) (A) (A) (A) (A) (A) (A) (A) (A) (A) (A)
                 (A) (A) (A) (A) (A) (A) (A) (A) (A) (A) (A) (A)
                 (A)
       Virtual   (A) (A) (A) (A) (A) (A) (A) (A) (A) (A) (A) (A)
                 (A) (A) (A) (A) (A) (A) (A) (A) (A) (A) (A) (A)
                 (A) (A) (A) (A) (A) (A) (A) (A) (A) (A) (A) (A)
                 (A) (A) (A) (A) (A) (A) (A) (A) (A) (A) (A) (A)
                 (A) (A) (A) (A) (A) (A) (A) (A) (A) (A) (A) (A)
                 (A) (A) (A) (A) (A) (A) (A) (A) (A) (A) (A) (A)
                 (A) (A) (A) (A) (A) (A) (A) (A) (A) (A) (A) (A)
                 (A) (A) (A) (A) (A) (A) (A) (A) (A)
 The electronic state of the initial guess is 1-A.
 Requested convergence on RMS density matrix=1.00D-08 within 128 cycles.
 Requested convergence on MAX density matrix=1.00D-06.
 Requested convergence on             energy=1.00D-06.
 No special actions if energy rises.
 Keep R1 ints in memory in canonical form, NReq=32550078.
 Error on total polarization charges =  0.05307
 SCF Done:  E(RM062X) =  -699.329209665     A.U. after   12 cycles
             Convg  =    0.2697D-08             -V/T =  2.0016
 SMD-CDS (non-electrostatic) energy             (kcal/mol) =      -0.05
 (included in total energy above)

 **********************************************************************

            Population analysis using the SCF density.

 **********************************************************************

 Orbital symmetries:
       Occupied  (A) (A) (A) (A) (A) (A) (A) (A) (A) (A) (A) (A)
                 (A) (A) (A) (A) (A) (A) (A) (A) (A) (A) (A) (A)
                 (A)
       Virtual   (A) (A) (A) (A) (A) (A) (A) (A) (A) (A) (A) (A)
                 (A) (A) (A) (A) (A) (A) (A) (A) (A) (A) (A) (A)
                 (A) (A) (A) (A) (A) (A) (A) (A) (A) (A) (A) (A)
                 (A) (A) (A) (A) (A) (A) (A) (A) (A) (A) (A) (A)
                 (A) (A) (A) (A) (A) (A) (A) (A) (A) (A) (A) (A)
                 (A) (A) (A) (A) (A) (A) (A) (A) (A) (A) (A) (A)
                 (A) (A) (A) (A) (A) (A) (A) (A) (A) (A) (A) (A)
                 (A) (A) (A) (A) (A) (A) (A) (A) (A)
 The electronic state is 1-A.
 Alpha  occ. eigenvalues --  -90.08694 -19.57993 -19.57991 -19.54404 -19.54391
 Alpha  occ. eigenvalues --   -8.42248  -6.34533  -6.34483  -6.34475  -1.24194
 Alpha  occ. eigenvalues --   -1.09266  -1.07332  -1.02057  -0.63742  -0.53593
 Alpha  occ. eigenvalues --   -0.53188  -0.52948  -0.41691  -0.40241  -0.39529
 Alpha  occ. eigenvalues --   -0.37996  -0.37052  -0.31776  -0.30432  -0.28222
 Alpha virt. eigenvalues --    0.03097   0.05876   0.05939   0.06053   0.15963
 Alpha virt. eigenvalues --    0.15988   0.16777   0.20291   0.21040   0.22096
 Alpha virt. eigenvalues --    0.22394   0.22720   0.26803   0.27029   0.27276
 Alpha virt. eigenvalues --    0.27912   0.30078   0.30296   0.30475   0.30726
 Alpha virt. eigenvalues --    0.33424   0.34091   0.36756   0.36838   0.41720
 Alpha virt. eigenvalues --    0.43417   0.43891   0.78921   0.79538   0.91897
 Alpha virt. eigenvalues --    1.02142   1.02931   1.03586   1.13331   1.13349
 Alpha virt. eigenvalues --    1.16411   1.18020   1.19574   1.21176   1.22385
 Alpha virt. eigenvalues --    1.22729   1.22768   1.28617   1.28706   1.29254
 Alpha virt. eigenvalues --    1.57279   1.58856   1.66360   1.74821   1.84284
 Alpha virt. eigenvalues --    1.91623   1.95735   2.86726   2.88196   2.91495
 Alpha virt. eigenvalues --    2.92111   2.92569   2.92969   2.94247   2.96106
 Alpha virt. eigenvalues --    2.98873   2.99179   3.00875   3.17059   3.18662
 Alpha virt. eigenvalues --    3.18802   3.24901   3.30734   3.38493   3.62276
 Alpha virt. eigenvalues --    3.66665   3.68165   5.09713   5.10784   5.13710
 Alpha virt. eigenvalues --    5.15552   5.15561   5.20094   5.20356   5.20833
 Alpha virt. eigenvalues --    5.22286   5.31178   5.42559   5.47319   8.33367
 Alpha virt. eigenvalues --   17.51677  17.62571  17.64874  50.00300  50.00640
 Alpha virt. eigenvalues --   50.05148  50.07420 189.54085
          Condensed to atoms (all electrons):
              1          2          3          4          5
     1  S   14.340847   0.167466   0.167465   0.307167   0.307019
     2  O    0.167466   8.921859  -0.215627  -0.153639  -0.153711
     3  O    0.167465  -0.215627   8.921859  -0.153639  -0.153711
     4  O    0.307167  -0.153639  -0.153639   9.025331  -0.235992
     5  O    0.307019  -0.153711  -0.153711  -0.235992   9.024506
 Mulliken atomic charges:
              1
     1  S    0.710035
     2  O   -0.566348
     3  O   -0.566348
     4  O   -0.789229
     5  O   -0.788111
 Sum of Mulliken atomic charges =  -2.00000
 Mulliken charges with hydrogens summed into heavy atoms:
              1
     1  S    0.710035
     2  O   -0.566348
     3  O   -0.566348
     4  O   -0.789229
     5  O   -0.788111
 Sum of Mulliken charges with hydrogens summed into heavy atoms =  -2.00000
 Electronic spatial extent (au):  <R**2>=            364.4774
 Charge=             -2.0000 electrons
 Dipole moment (field-independent basis, Debye):
    X=              2.3019    Y=              0.0000    Z=              0.0079  Tot=              2.3019
 Quadrupole moment (field-independent basis, Debye-Ang):
   XX=            -51.5579   YY=            -48.9766   ZZ=            -49.6094
   XY=              0.0000   XZ=             -0.0049   YZ=              0.0000
 Traceless Quadrupole moment (field-independent basis, Debye-Ang):
   XX=             -1.5099   YY=              1.0714   ZZ=              0.4386
   XY=              0.0000   XZ=             -0.0049   YZ=              0.0000
 Octapole moment (field-independent basis, Debye-Ang**2):
  XXX=              5.2387  YYY=              0.0000  ZZZ=              0.0194  XYY=             -8.8630
  XXY=              0.0000  XXZ=              0.0137  XZZ=             12.4129  YZZ=              0.0000
  YYZ=              0.0072  XYZ=              0.0000
 Hexadecapole moment (field-independent basis, Debye-Ang**3):
 XXXX=           -192.6311 YYYY=           -175.0464 ZZZZ=           -165.4841 XXXY=              0.0000
 XXXZ=             -0.0202 YYYX=              0.0000 YYYZ=              0.0000 ZZZX=             -0.0178
 ZZZY=              0.0000 XXYY=            -65.4921 XXZZ=            -63.9516 YYZZ=            -51.9581
 XXYZ=              0.0000 YYXZ=             -0.0040 ZZXY=              0.0000
 N-N= 2.657966244459D+02 E-N=-2.212764885671D+03  KE= 6.982024299478D+02
 1\1\GINC-HJ122\SP\RM062X\6-311++G(d,p)\O4S1(2-)\HJ122\11-Nov-2015\0\\#
  6-311++g(d,p) scrf=(smd,solvent=water) m062x\\SO4-_vert\\-2,1\S,0,0.0
 84558,0.,0.000239\O,0,0.879526,1.223559,-0.000256\O,0,0.879535,-1.2235
 53,-0.000251\O,0,-0.964285,-0.000006,-1.103629\O,0,-0.963892,-0.000001
 ,1.103658\\Version=EM64L-G09RevA.01\State=1-A\HF=-699.3292097\RMSD=2.6
 97e-09\Dipole=0.9056238,0.0000022,0.0030943\Quadrupole=-1.12259,0.7965
 357,0.3260543,-0.0000069,-0.0036741,-0.0000028\PG=C01 [X(O4S1)]\\@


 IN THE WOODS WE RETURN TO REASON AND FAITH.

                                 -- EMERSON
 Job cpu time:  0 days  0 hours  2 minutes 17.7 seconds.
 File lengths (MBytes):  RWF=     16 Int=      0 D2E=      0 Chk=      2 Scr=      1
 Normal termination of Gaussian 09 at Wed Nov 11 14:47:00 2015.
