 Entering Link 1 = C:\G09W\l1.exe PID=     10128.
  
 Copyright (c) 1988,1990,1992,1993,1995,1998,2003,2009, Gaussian, Inc.
                  All Rights Reserved.
  
 This is part of the Gaussian(R) 09 program.  It is based on
 the Gaussian(R) 03 system (copyright 2003, Gaussian, Inc.),
 the Gaussian(R) 98 system (copyright 1998, Gaussian, Inc.),
 the Gaussian(R) 94 system (copyright 1995, Gaussian, Inc.),
 the Gaussian 92(TM) system (copyright 1992, Gaussian, Inc.),
 the Gaussian 90(TM) system (copyright 1990, Gaussian, Inc.),
 the Gaussian 88(TM) system (copyright 1988, Gaussian, Inc.),
 the Gaussian 86(TM) system (copyright 1986, Carnegie Mellon
 University), and the Gaussian 82(TM) system (copyright 1983,
 Carnegie Mellon University). Gaussian is a federally registered
 trademark of Gaussian, Inc.
  
 This software contains proprietary and confidential information,
 including trade secrets, belonging to Gaussian, Inc.
  
 This software is provided under written license and may be
 used, copied, transmitted, or stored only in accord with that
 written license.
  
 The following legend is applicable only to US Government
 contracts under FAR:
  
                    RESTRICTED RIGHTS LEGEND
  
 Use, reproduction and disclosure by the US Government is
 subject to restrictions as set forth in subparagraphs (a)
 and (c) of the Commercial Computer Software - Restricted
 Rights clause in FAR 52.227-19.
  
 Gaussian, Inc.
 340 Quinnipiac St., Bldg. 40, Wallingford CT 06492
  
  
 ---------------------------------------------------------------
 Warning -- This program may not be used in any manner that
 competes with the business of Gaussian, Inc. or will provide
 assistance to any competitor of Gaussian, Inc.  The licensee
 of this program is prohibited from giving any competitor of
 Gaussian, Inc. access to this program.  By using this program,
 the user acknowledges that Gaussian, Inc. is engaged in the
 business of creating and licensing software in the field of
 computational chemistry and represents and warrants to the
 licensee that it is not a competitor of Gaussian, Inc. and that
 it will not use this program in any manner prohibited above.
 ---------------------------------------------------------------
  

 Cite this work as:
 Gaussian 09, Revision A.02,
 M. J. Frisch, G. W. Trucks, H. B. Schlegel, G. E. Scuseria, 
 M. A. Robb, J. R. Cheeseman, G. Scalmani, V. Barone, B. Mennucci, 
 G. A. Petersson, H. Nakatsuji, M. Caricato, X. Li, H. P. Hratchian, 
 A. F. Izmaylov, J. Bloino, G. Zheng, J. L. Sonnenberg, M. Hada, 
 M. Ehara, K. Toyota, R. Fukuda, J. Hasegawa, M. Ishida, T. Nakajima, 
 Y. Honda, O. Kitao, H. Nakai, T. Vreven, J. A. Montgomery, Jr., 
 J. E. Peralta, F. Ogliaro, M. Bearpark, J. J. Heyd, E. Brothers, 
 K. N. Kudin, V. N. Staroverov, R. Kobayashi, J. Normand, 
 K. Raghavachari, A. Rendell, J. C. Burant, S. S. Iyengar, J. Tomasi, 
 M. Cossi, N. Rega, J. M. Millam, M. Klene, J. E. Knox, J. B. Cross, 
 V. Bakken, C. Adamo, J. Jaramillo, R. Gomperts, R. E. Stratmann, 
 O. Yazyev, A. J. Austin, R. Cammi, C. Pomelli, J. W. Ochterski, 
 R. L. Martin, K. Morokuma, V. G. Zakrzewski, G. A. Voth, 
 P. Salvador, J. J. Dannenberg, S. Dapprich, A. D. Daniels, 
 O. Farkas, J. B. Foresman, J. V. Ortiz, J. Cioslowski, 
 and D. J. Fox, Gaussian, Inc., Wallingford CT, 2009.
 
 ******************************************
 Gaussian 09:  IA32W-G09RevA.02 11-Jun-2009
                08-Aug-2016 
 ******************************************
 %chk=OH.chk
 %mem=100mw
 ------------------------------------------
 # opt freq=noraman MP2/aug-cc-pvdz scf=xqc
 ------------------------------------------
 1/18=20,19=15,38=1/1,3;
 2/9=110,12=2,17=6,18=5,40=1/2;
 3/5=16,7=10,11=9,16=1,25=1,30=1,71=1/1,2,3;
 4//1;
 5/5=2,8=3,13=1,38=5/2,8;
 8/6=4,10=1/1;
 9/15=2,16=-3/6;
 10/5=1/2;
 6/7=2,8=2,9=2,10=2/1;
 7/12=2/1,2,3,16;
 1/18=20,19=15/3(2);
 2/9=110/2;
 99//99;
 2/9=110/2;
 3/5=16,7=10,11=9,16=1,25=1,30=1,71=1/1,2,3;
 4/5=5,16=3/1;
 5/5=2,8=3,13=1,38=5/2,8;
 8/6=4,10=1/1;
 9/15=2,16=-3/6;
 10/5=1/2;
 7/12=2/1,2,3,16;
 1/18=20,19=15/3(-8);
 2/9=110/2;
 6/7=2,8=2,9=2,10=2/1;
 99//99;
 -------------------
 Title Card Required
 -------------------
 Symbolic Z-matrix:
 Charge =  0 Multiplicity = 2
 O                     0.        0.        0.10468 
 H                     0.        0.       -0.87532 
 

 GradGradGradGradGradGradGradGradGradGradGradGradGradGradGradGradGradGrad
 Berny optimization.
 Initialization pass.
                           ----------------------------
                           !    Initial Parameters    !
                           ! (Angstroms and Degrees)  !
 --------------------------                            --------------------------
 ! Name  Definition              Value          Derivative Info.                !
 --------------------------------------------------------------------------------
 ! R1    R(1,2)                  0.98           estimate D2E/DX2                !
 --------------------------------------------------------------------------------
 Trust Radius=3.00D-01 FncErr=1.00D-07 GrdErr=1.00D-07
 Number of steps in this run=  20 maximum allowed number of steps= 100.
 GradGradGradGradGradGradGradGradGradGradGradGradGradGradGradGradGradGrad

                          Input orientation:                          
 ---------------------------------------------------------------------
 Center     Atomic      Atomic             Coordinates (Angstroms)
 Number     Number       Type             X           Y           Z
 ---------------------------------------------------------------------
      1          8           0        0.000000    0.000000    0.104678
      2          1           0        0.000000    0.000000   -0.875323
 ---------------------------------------------------------------------
 Stoichiometry    HO(2)
 Framework group  C*V[C*(HO)]
 Deg. of freedom     1
 Full point group                 C*V     NOp   4
 Largest Abelian subgroup         C2V     NOp   4
 Largest concise Abelian subgroup C1      NOp   1
                         Standard orientation:                         
 ---------------------------------------------------------------------
 Center     Atomic      Atomic             Coordinates (Angstroms)
 Number     Number       Type             X           Y           Z
 ---------------------------------------------------------------------
      1          8           0        0.000000    0.000000    0.108889
      2          1           0        0.000000    0.000000   -0.871111
 ---------------------------------------------------------------------
 Rotational constants (GHZ):      0.0000000    555.0305399    555.0305399
 Standard basis: Aug-CC-pVDZ (5D, 7F)
 There are    16 symmetry adapted basis functions of A1  symmetry.
 There are     2 symmetry adapted basis functions of A2  symmetry.
 There are     7 symmetry adapted basis functions of B1  symmetry.
 There are     7 symmetry adapted basis functions of B2  symmetry.
 Integral buffers will be    262144 words long.
 Raffenetti 2 integral format.
 Two-electron integral symmetry is turned on.
    32 basis functions,    54 primitive gaussians,    34 cartesian basis functions
     5 alpha electrons        4 beta electrons
       nuclear repulsion energy         4.3198139477 Hartrees.
 NAtoms=    2 NActive=    2 NUniq=    2 SFac= 7.50D-01 NAtFMM=   80 NAOKFM=F Big=F
 One-electron integrals computed using PRISM.
 NBasis=    32 RedAO= T  NBF=    16     2     7     7
 NBsUse=    32 1.00D-06 NBFU=    16     2     7     7
 Harris functional with IExCor=  205 diagonalized for initial guess.
 ExpMin= 2.97D-02 ExpMax= 1.17D+04 ExpMxC= 4.01D+02 IAcc=3 IRadAn=         0 AccDes= 0.00D+00
 HarFok:  IExCor=  205 AccDes= 0.00D+00 IRadAn=         0 IDoV= 1
 ScaDFX=  1.000000  1.000000  1.000000  1.000000
 FoFCou: FMM=F IPFlag=           0 FMFlag=      100000 FMFlg1=           0
         NFxFlg=           0 DoJE=T BraDBF=F KetDBF=T FulRan=T
         Omega=  0.000000  0.000000  1.000000  0.000000  0.000000 ICntrl=     500 IOpCl=  0
         NMat0=    1 NMatS0=    1 NMatT0=    0 NMatD0=    1 NMtDS0=    0 NMtDT0=    0
         I1Cent=           4 NGrid=           0.
 Petite list used in FoFCou.
 Initial guess orbital symmetries:
 Alpha Orbitals:
       Occupied  (SG) (SG) (SG) (PI) (PI)
       Virtual   (SG) (SG) (PI) (PI) (SG) (SG) (PI) (PI) (SG) (SG)
                 (DLTA) (DLTA) (PI) (PI) (SG) (PI) (PI) (SG) (PI)
                 (PI) (SG) (SG) (DLTA) (DLTA) (PI) (PI) (SG)
 Beta  Orbitals:
       Occupied  (SG) (SG) (SG) (PI)
       Virtual   (PI) (SG) (SG) (PI) (PI) (SG) (SG) (PI) (PI) (SG)
                 (SG) (DLTA) (DLTA) (PI) (PI) (SG) (PI) (PI) (SG)
                 (PI) (PI) (SG) (SG) (DLTA) (DLTA) (PI) (PI) (SG)
 Initial guess <Sx>= 0.0000 <Sy>= 0.0000 <Sz>= 0.5000 <S**2>= 0.7500 S= 0.5000
 Requested convergence on RMS density matrix=1.00D-08 within  64 cycles.
 Requested convergence on MAX density matrix=1.00D-06.
 Requested convergence on             energy=1.00D-06.
 No special actions if energy rises.
 Keep R1 and R2 ints in memory in canonical form, NReq=1184074.
 SCF Done:  E(UHF) =  -75.4032574821     A.U. after   12 cycles
             Convg  =    0.2454D-08             -V/T =  2.0014
 <Sx>= 0.0000 <Sy>= 0.0000 <Sz>= 0.5000 <S**2>= 0.7567 S= 0.5033
 <L.S>= 0.000000000000E+00
 Annihilation of the first spin contaminant:
 S**2 before annihilation     0.7567,   after     0.7500
 QCSCF skips out because SCF is already converged.
 ExpMin= 2.97D-02 ExpMax= 1.17D+04 ExpMxC= 4.01D+02 IAcc=3 IRadAn=         5 AccDes= 0.00D+00
 HarFok:  IExCor=  205 AccDes= 0.00D+00 IRadAn=         5 IDoV=-2
 ScaDFX=  1.000000  1.000000  1.000000  1.000000
 Range of M.O.s used for correlation:     2    32
 NBasis=    32 NAE=     5 NBE=     4 NFC=     1 NFV=     0
 NROrb=     31 NOA=     4 NOB=     3 NVA=    27 NVB=    28
 Fully direct method using O(ONN) memory.
 JobTyp=2 Pass  1:  I=   2 to   5 NPSUse=  1 ParTrn=F ParDer=F DoDerP=T.
 JobTyp=3 Pass  1:  I=   2 to   4 NPSUse=  1 ParTrn=F ParDer=F DoDerP=T.
 Spin components of T(2) and E(2):
     alpha-alpha T2 =       0.6906579203D-02 E2=     -0.2682587668D-01
     alpha-beta  T2 =       0.3172115792D-01 E2=     -0.1226134298D+00
     beta-beta   T2 =       0.3543336643D-02 E2=     -0.1285410185D-01
 (S**2,0)=  0.75670D+00           (S**2,1)=  0.75140D+00
 E(PUHF)=      -0.75406197916D+02        E(PMP2)=      -0.75567331929D+02
 ANorm=    0.1020867804D+01
 E2 =    -0.1622934083D+00 EUMP2 =    -0.75565550890359D+02
          IDoAtm=11
          Differentiating once with respect to electric field.
                with respect to dipole field.
          Differentiating once with respect to nuclear coordinates.
          Keep R1 and R2 ints in memory in canonical form, NReq=1175030.
          There are     1 degrees of freedom in the 1st order CPHF.  IDoFFX=0.
 LinEq1:  Iter=  0 NonCon=     1 RMS=4.15D-03 Max=2.84D-02
 AX will form     1 AO Fock derivatives at one time.
 LinEq1:  Iter=  1 NonCon=     1 RMS=9.40D-04 Max=4.30D-03
 LinEq1:  Iter=  2 NonCon=     1 RMS=2.94D-04 Max=1.73D-03
 LinEq1:  Iter=  3 NonCon=     1 RMS=6.38D-05 Max=3.28D-04
 LinEq1:  Iter=  4 NonCon=     1 RMS=1.15D-05 Max=7.31D-05
 LinEq1:  Iter=  5 NonCon=     1 RMS=1.53D-06 Max=7.53D-06
 LinEq1:  Iter=  6 NonCon=     1 RMS=2.80D-07 Max=2.05D-06
 LinEq1:  Iter=  7 NonCon=     1 RMS=5.30D-08 Max=2.81D-07
 LinEq1:  Iter=  8 NonCon=     1 RMS=6.41D-09 Max=2.76D-08
 LinEq1:  Iter=  9 NonCon=     1 RMS=7.19D-10 Max=3.38D-09
 LinEq1:  Iter= 10 NonCon=     0 RMS=6.14D-11 Max=2.93D-10
 Linear equations converged to 1.000D-10 1.000D-09 after    10 iterations.
 End of Minotr Frequency-dependent properties file   721 does not exist.
 End of Minotr Frequency-dependent properties file   722 does not exist.

 **********************************************************************

            Population analysis using the SCF density.

 **********************************************************************

 Orbital symmetries:
 Alpha Orbitals:
       Occupied  (SG) (SG) (SG) (PI) (PI)
       Virtual   (SG) (SG) (PI) (PI) (SG) (SG) (PI) (PI) (SG) (?A)
                 (?A) (?A) (PI) (PI) (SG) (PI) (PI) (SG) (PI) (PI)
                 (SG) (SG) (?B) (?B) (PI) (PI) (?B)
 Beta  Orbitals:
       Occupied  (SG) (SG) (SG) (?A)
       Virtual   (SG) (?A) (SG) (?A) (SG) (?A) (SG) (?A) (?A) (SG)
                 (?B) (?B) (?B) (PI) (PI) (SG) (?A) (?A) (SG) (PI)
                 (PI) (SG) (SG) (DLTA) (DLTA) (PI) (PI) (SG)
 Unable to determine electronic state:  an orbital has unidentified symmetry.
 Alpha  occ. eigenvalues --  -20.65218  -1.39014  -0.68137  -0.65674  -0.56118
 Alpha virt. eigenvalues --    0.03555   0.17839   0.18536   0.19830   0.22480
 Alpha virt. eigenvalues --    0.31486   0.38530   0.39554   0.62361   0.83772
 Alpha virt. eigenvalues --    0.95680   0.95847   1.08667   1.11704   1.31595
 Alpha virt. eigenvalues --    1.32665   1.38553   1.65811   2.00750   2.02505
 Alpha virt. eigenvalues --    2.47330   2.75898   3.48437   3.48453   3.59046
 Alpha virt. eigenvalues --    3.65073   4.08055
  Beta  occ. eigenvalues --  -20.61121  -1.23163  -0.63719  -0.51143
  Beta virt. eigenvalues --    0.03704   0.06476   0.18193   0.20177   0.23162
  Beta virt. eigenvalues --    0.25832   0.32001   0.39503   0.40808   0.63847
  Beta virt. eigenvalues --    0.84746   0.99548   0.99654   1.11928   1.13206
  Beta virt. eigenvalues --    1.33105   1.40881   1.49750   1.68133   2.01492
  Beta virt. eigenvalues --    2.02155   2.50511   2.77495   3.58486   3.58556
  Beta virt. eigenvalues --    3.66959   3.68743   4.11503
          Condensed to atoms (all electrons):
              1          2
     1  O    7.939160   0.277498
     2  H    0.277498   0.505843
 Mulliken atomic charges:
              1
     1  O   -0.216658
     2  H    0.216658
 Sum of Mulliken atomic charges =   0.00000
 Mulliken charges with hydrogens summed into heavy atoms:
              1
     1  O    0.000000
 Sum of Mulliken charges with hydrogens summed into heavy atoms =   0.00000
          Atomic-Atomic Spin Densities.
              1          2
     1  O    1.081144  -0.006370
     2  H   -0.006370  -0.068405
 Mulliken atomic spin densities:
              1
     1  O    1.074774
     2  H   -0.074774
 Sum of Mulliken atomic spin densities =   1.00000
 Electronic spatial extent (au):  <R**2>=             15.5128
 Charge=              0.0000 electrons
 Dipole moment (field-independent basis, Debye):
    X=              0.0000    Y=              0.0000    Z=             -1.7786  Tot=              1.7786
 Quadrupole moment (field-independent basis, Debye-Ang):
   XX=             -5.4128   YY=             -6.7915   ZZ=             -4.5606
   XY=              0.0000   XZ=              0.0000   YZ=              0.0000
 Traceless Quadrupole moment (field-independent basis, Debye-Ang):
   XX=              0.1755   YY=             -1.2032   ZZ=              1.0277
   XY=              0.0000   XZ=              0.0000   YZ=              0.0000
 Octapole moment (field-independent basis, Debye-Ang**2):
  XXX=              0.0000  YYY=              0.0000  ZZZ=             -2.0904  XYY=              0.0000
  XXY=              0.0000  XXZ=             -0.1830  XZZ=              0.0000  YZZ=              0.0000
  YYZ=             -0.2591  XYZ=              0.0000
 Hexadecapole moment (field-independent basis, Debye-Ang**3):
 XXXX=             -3.7811 YYYY=             -5.9688 ZZZZ=             -5.5607 XXXY=              0.0000
 XXXZ=              0.0000 YYYX=              0.0000 YYYZ=              0.0000 ZZZX=              0.0000
 ZZZY=              0.0000 XXYY=             -1.6247 XXZZ=             -1.7995 YYZZ=             -2.1953
 XXYZ=              0.0000 YYXZ=              0.0000 ZZXY=              0.0000
 N-N= 4.319813947673D+00 E-N=-2.767009433134D+02  KE= 1.115145413997D+02
 Symmetry A1   KE= 1.020865650999D+02
 Symmetry A2   KE= 1.205206486793D-34
 Symmetry B1   KE= 2.509237420112D+00
 Symmetry B2   KE= 6.918738879666D+00
                          Isotropic Fermi Contact Couplings
        Atom                 a.u.       MegaHertz       Gauss      10(-4) cm-1
     1  O(17)              0.21141    -128.15792     -45.72993     -42.74888
     2  H(1)              -0.01602     -71.59203     -25.54582     -23.88053
 --------------------------------------------------------
       Center         ----  Spin Dipole Couplings  ----
                      3XX-RR        3YY-RR        3ZZ-RR
 --------------------------------------------------------
     1   Atom        3.549949     -1.761651     -1.788298
     2   Atom       -0.035652     -0.130485      0.166138
 --------------------------------------------------------
                        XY            XZ            YZ
 --------------------------------------------------------
     1   Atom        0.000000      0.000000      0.000000
     2   Atom        0.000000      0.000000      0.000000
 --------------------------------------------------------


 ---------------------------------------------------------------------------------
              Anisotropic Spin Dipole Couplings in Principal Axis System
 ---------------------------------------------------------------------------------

       Atom             a.u.   MegaHertz   Gauss  10(-4) cm-1        Axes

              Baa    -1.7883   129.400    46.173    43.163  0.0000  0.0000  1.0000
     1 O(17)  Bbb    -1.7617   127.472    45.485    42.520  0.0000  1.0000  0.0000
              Bcc     3.5499  -256.872   -91.658   -85.683  1.0000  0.0000  0.0000
 
              Baa    -0.1305   -69.621   -24.842   -23.223  0.0000  1.0000  0.0000
     2 H(1)   Bbb    -0.0357   -19.022    -6.788    -6.345  1.0000  0.0000  0.0000
              Bcc     0.1661    88.643    31.630    29.568  0.0000  0.0000  1.0000
 

 ---------------------------------------------------------------------------------

 Calling FoFJK, ICntrl=      2127 FMM=F ISym2X=1 I1Cent= 0 IOpClX= 1 NMat=1 NMatS=1 NMatT=0.
 ***** Axes restored to original set *****
 -------------------------------------------------------------------
 Center     Atomic                   Forces (Hartrees/Bohr)
 Number     Number              X              Y              Z
 -------------------------------------------------------------------
      1        8           0.000000000    0.000000000   -0.004570770
      2        1           0.000000000    0.000000000    0.004570770
 -------------------------------------------------------------------
 Cartesian Forces:  Max     0.004570770 RMS     0.002638935

 GradGradGradGradGradGradGradGradGradGradGradGradGradGradGradGradGradGrad
 Berny optimization.
 Internal  Forces:  Max     0.004570770 RMS     0.004570770
 Search for a local minimum.
 Step number   1 out of a maximum of   20
 All quantities printed in internal units (Hartrees-Bohrs-Radians)
 Mixed Optimization -- RFO/linear search
 Second derivative matrix not updated -- first step.
 The second derivative matrix:
                          R1
           R1           0.51385
     Eigenvalues ---    0.51385
 RFO step:  Lambda=-4.06545895D-05 EMin= 5.13848058D-01
 Linear search not attempted -- first point.
 Iteration  1 RMS(Cart)=  0.00628934 RMS(Int)=  0.00000000
 Iteration  2 RMS(Cart)=  0.00000000 RMS(Int)=  0.00000000
 ClnCor:  largest displacement from symmetrization is 0.00D+00 for atom     0.
 Variable       Old X    -DE/DX   Delta X   Delta X   Delta X     New X
                                 (Linear)    (Quad)   (Total)
    R1        1.85193  -0.00457   0.00000  -0.00889  -0.00889   1.84304
         Item               Value     Threshold  Converged?
 Maximum Force            0.004571     0.000450     NO 
 RMS     Force            0.004571     0.000300     NO 
 Maximum Displacement     0.004447     0.001800     NO 
 RMS     Displacement     0.006289     0.001200     NO 
 Predicted change in Energy=-2.032890D-05
 GradGradGradGradGradGradGradGradGradGradGradGradGradGradGradGradGradGrad

                          Input orientation:                          
 ---------------------------------------------------------------------
 Center     Atomic      Atomic             Coordinates (Angstroms)
 Number     Number       Type             X           Y           Z
 ---------------------------------------------------------------------
      1          8           0        0.000000    0.000000    0.102324
      2          1           0        0.000000    0.000000   -0.872969
 ---------------------------------------------------------------------
 Stoichiometry    HO(2)
 Framework group  C*V[C*(HO)]
 Deg. of freedom     1
 Full point group                 C*V     NOp   4
 Largest Abelian subgroup         C2V     NOp   4
 Largest concise Abelian subgroup C1      NOp   1
                         Standard orientation:                         
 ---------------------------------------------------------------------
 Center     Atomic      Atomic             Coordinates (Angstroms)
 Number     Number       Type             X           Y           Z
 ---------------------------------------------------------------------
      1          8           0        0.000000    0.000000    0.108366
      2          1           0        0.000000    0.000000   -0.866927
 ---------------------------------------------------------------------
 Rotational constants (GHZ):      0.0000000    560.4006072    560.4006072
 Standard basis: Aug-CC-pVDZ (5D, 7F)
 There are    16 symmetry adapted basis functions of A1  symmetry.
 There are     2 symmetry adapted basis functions of A2  symmetry.
 There are     7 symmetry adapted basis functions of B1  symmetry.
 There are     7 symmetry adapted basis functions of B2  symmetry.
 Integral buffers will be    262144 words long.
 Raffenetti 2 integral format.
 Two-electron integral symmetry is turned on.
    32 basis functions,    54 primitive gaussians,    34 cartesian basis functions
     5 alpha electrons        4 beta electrons
       nuclear repulsion energy         4.3406613144 Hartrees.
 NAtoms=    2 NActive=    2 NUniq=    2 SFac= 7.50D-01 NAtFMM=   80 NAOKFM=F Big=F
 One-electron integrals computed using PRISM.
 NBasis=    32 RedAO= T  NBF=    16     2     7     7
 NBsUse=    32 1.00D-06 NBFU=    16     2     7     7
 Initial guess read from the read-write file.
 B after Tr=     0.000000    0.000000    0.000000
         Rot=    1.000000    0.000000    0.000000    0.000000 Ang=   0.00 deg.
 Initial guess orbital symmetries:
 Alpha Orbitals:
       Occupied  (SG) (SG) (SG) (PI) (PI)
       Virtual   (SG) (SG) (PI) (PI) (SG) (SG) (PI) (PI) (SG) (?A)
                 (?A) (?A) (PI) (PI) (SG) (PI) (PI) (SG) (PI) (PI)
                 (SG) (SG) (?B) (?B) (PI) (PI) (?B)
 Beta  Orbitals:
       Occupied  (SG) (SG) (SG) (?A)
       Virtual   (SG) (?A) (SG) (?A) (SG) (?A) (SG) (?A) (?A) (SG)
                 (?B) (?B) (?B) (PI) (PI) (SG) (?A) (?A) (SG) (PI)
                 (PI) (SG) (SG) (DLTA) (DLTA) (PI) (PI) (SG)
 Initial guess <Sx>= 0.0000 <Sy>= 0.0000 <Sz>= 0.5000 <S**2>= 0.7567 S= 0.5033
 Requested convergence on RMS density matrix=1.00D-08 within  64 cycles.
 Requested convergence on MAX density matrix=1.00D-06.
 Requested convergence on             energy=1.00D-06.
 No special actions if energy rises.
 Keep R1 and R2 ints in memory in canonical form, NReq=1184074.
 SCF Done:  E(UHF) =  -75.4034639167     A.U. after    9 cycles
             Convg  =    0.6410D-08             -V/T =  2.0013
 <Sx>= 0.0000 <Sy>= 0.0000 <Sz>= 0.5000 <S**2>= 0.7566 S= 0.5033
 <L.S>= 0.000000000000E+00
 Annihilation of the first spin contaminant:
 S**2 before annihilation     0.7566,   after     0.7500
 QCSCF skips out because SCF is already converged.
 ExpMin= 2.97D-02 ExpMax= 1.17D+04 ExpMxC= 4.01D+02 IAcc=3 IRadAn=         5 AccDes= 0.00D+00
 HarFok:  IExCor=  205 AccDes= 0.00D+00 IRadAn=         5 IDoV=-2
 ScaDFX=  1.000000  1.000000  1.000000  1.000000
 Range of M.O.s used for correlation:     2    32
 NBasis=    32 NAE=     5 NBE=     4 NFC=     1 NFV=     0
 NROrb=     31 NOA=     4 NOB=     3 NVA=    27 NVB=    28
 Fully direct method using O(ONN) memory.
 JobTyp=2 Pass  1:  I=   2 to   5 NPSUse=  1 ParTrn=F ParDer=F DoDerP=T.
 JobTyp=3 Pass  1:  I=   2 to   4 NPSUse=  1 ParTrn=F ParDer=F DoDerP=T.
 Spin components of T(2) and E(2):
     alpha-alpha T2 =       0.6889403811D-02 E2=     -0.2680449541D-01
     alpha-beta  T2 =       0.3160127575D-01 E2=     -0.1224652658D+00
     beta-beta   T2 =       0.3530206021D-02 E2=     -0.1283816449D-01
 (S**2,0)=  0.75663D+00           (S**2,1)=  0.75136D+00
 E(PUHF)=      -0.75406395670D+02        E(PMP2)=      -0.75567341384D+02
 ANorm=    0.1020794243D+01
 E2 =    -0.1621079257D+00 EUMP2 =    -0.75565571842447D+02
          IDoAtm=11
          Differentiating once with respect to electric field.
                with respect to dipole field.
          Differentiating once with respect to nuclear coordinates.
          Keep R1 and R2 ints in memory in canonical form, NReq=1175030.
          There are     1 degrees of freedom in the 1st order CPHF.  IDoFFX=0.
 LinEq1:  Iter=  0 NonCon=     1 RMS=4.14D-03 Max=2.82D-02
 AX will form     1 AO Fock derivatives at one time.
 LinEq1:  Iter=  1 NonCon=     1 RMS=9.31D-04 Max=4.30D-03
 LinEq1:  Iter=  2 NonCon=     1 RMS=2.89D-04 Max=1.71D-03
 LinEq1:  Iter=  3 NonCon=     1 RMS=6.18D-05 Max=3.18D-04
 LinEq1:  Iter=  4 NonCon=     1 RMS=1.12D-05 Max=7.11D-05
 LinEq1:  Iter=  5 NonCon=     1 RMS=1.47D-06 Max=7.27D-06
 LinEq1:  Iter=  6 NonCon=     1 RMS=2.70D-07 Max=1.97D-06
 LinEq1:  Iter=  7 NonCon=     1 RMS=5.15D-08 Max=2.74D-07
 LinEq1:  Iter=  8 NonCon=     1 RMS=6.25D-09 Max=2.64D-08
 LinEq1:  Iter=  9 NonCon=     1 RMS=7.01D-10 Max=3.28D-09
 LinEq1:  Iter= 10 NonCon=     0 RMS=6.01D-11 Max=2.83D-10
 Linear equations converged to 1.000D-10 1.000D-09 after    10 iterations.
 End of Minotr Frequency-dependent properties file   721 does not exist.
 End of Minotr Frequency-dependent properties file   722 does not exist.
 Calling FoFJK, ICntrl=      2127 FMM=F ISym2X=1 I1Cent= 0 IOpClX= 1 NMat=1 NMatS=1 NMatT=0.
 ***** Axes restored to original set *****
 -------------------------------------------------------------------
 Center     Atomic                   Forces (Hartrees/Bohr)
 Number     Number              X              Y              Z
 -------------------------------------------------------------------
      1        8           0.000000000    0.000000000   -0.000116566
      2        1           0.000000000    0.000000000    0.000116566
 -------------------------------------------------------------------
 Cartesian Forces:  Max     0.000116566 RMS     0.000067300

 GradGradGradGradGradGradGradGradGradGradGradGradGradGradGradGradGradGrad
 Berny optimization.
 Using GEDIIS/GDIIS optimizer.
 Internal  Forces:  Max     0.000116566 RMS     0.000116566
 Search for a local minimum.
 Step number   2 out of a maximum of   20
 All quantities printed in internal units (Hartrees-Bohrs-Radians)
 Mixed Optimization -- En-DIIS/RFO-DIIS
 Update second derivatives using D2CorX and points    1    2
 DE= -2.10D-05 DEPred=-2.03D-05 R= 1.03D+00
 SS=  1.41D+00  RLast= 8.89D-03 DXNew= 5.0454D-01 2.6683D-02
 Trust test= 1.03D+00 RLast= 8.89D-03 DXMaxT set to 3.00D-01
 The second derivative matrix:
                          R1
           R1           0.50078
 Use linear search instead of GDIIS.
     Eigenvalues ---    0.50078
 RFO step:  Lambda= 0.00000000D+00 EMin= 5.00783253D-01
 Quartic linear search produced a step of  0.02574.
 Iteration  1 RMS(Cart)=  0.00016191 RMS(Int)=  0.00000000
 Iteration  2 RMS(Cart)=  0.00000000 RMS(Int)=  0.00000000
 ClnCor:  largest displacement from symmetrization is 0.00D+00 for atom     0.
 Variable       Old X    -DE/DX   Delta X   Delta X   Delta X     New X
                                 (Linear)    (Quad)   (Total)
    R1        1.84304  -0.00012  -0.00023   0.00000  -0.00023   1.84281
         Item               Value     Threshold  Converged?
 Maximum Force            0.000117     0.000450     YES
 RMS     Force            0.000117     0.000300     YES
 Maximum Displacement     0.000114     0.001800     YES
 RMS     Displacement     0.000162     0.001200     YES
 Predicted change in Energy=-1.356281D-08
 Optimization completed.
    -- Stationary point found.
                           ----------------------------
                           !   Optimized Parameters   !
                           ! (Angstroms and Degrees)  !
 --------------------------                            --------------------------
 ! Name  Definition              Value          Derivative Info.                !
 --------------------------------------------------------------------------------
 ! R1    R(1,2)                  0.9753         -DE/DX =   -0.0001              !
 --------------------------------------------------------------------------------
 GradGradGradGradGradGradGradGradGradGradGradGradGradGradGradGradGradGrad

                          Input orientation:                          
 ---------------------------------------------------------------------
 Center     Atomic      Atomic             Coordinates (Angstroms)
 Number     Number       Type             X           Y           Z
 ---------------------------------------------------------------------
      1          8           0        0.000000    0.000000    0.102324
      2          1           0        0.000000    0.000000   -0.872969
 ---------------------------------------------------------------------
 Stoichiometry    HO(2)
 Framework group  C*V[C*(HO)]
 Deg. of freedom     1
 Full point group                 C*V     NOp   4
 Largest Abelian subgroup         C2V     NOp   4
 Largest concise Abelian subgroup C1      NOp   1
                         Standard orientation:                         
 ---------------------------------------------------------------------
 Center     Atomic      Atomic             Coordinates (Angstroms)
 Number     Number       Type             X           Y           Z
 ---------------------------------------------------------------------
      1          8           0        0.000000    0.000000    0.108366
      2          1           0        0.000000    0.000000   -0.866927
 ---------------------------------------------------------------------
 Rotational constants (GHZ):      0.0000000    560.4006072    560.4006072

 **********************************************************************

            Population analysis using the SCF density.

 **********************************************************************

 Orbital symmetries:
 Alpha Orbitals:
       Occupied  (SG) (SG) (SG) (PI) (PI)
       Virtual   (SG) (SG) (PI) (PI) (SG) (SG) (PI) (PI) (SG) (?A)
                 (?A) (?A) (PI) (PI) (SG) (PI) (PI) (SG) (PI) (PI)
                 (SG) (SG) (?B) (?B) (PI) (PI) (?B)
 Beta  Orbitals:
       Occupied  (SG) (SG) (SG) (?A)
       Virtual   (SG) (?A) (SG) (?A) (SG) (?A) (SG) (?A) (?A) (SG)
                 (?B) (?B) (?B) (PI) (PI) (SG) (?A) (?A) (SG) (PI)
                 (PI) (SG) (SG) (DLTA) (DLTA) (PI) (PI) (SG)
 Unable to determine electronic state:  an orbital has unidentified symmetry.
 Alpha  occ. eigenvalues --  -20.65182  -1.39147  -0.68271  -0.65691  -0.56138
 Alpha virt. eigenvalues --    0.03563   0.17833   0.18526   0.19818   0.22524
 Alpha virt. eigenvalues --    0.31569   0.38582   0.39612   0.62477   0.83922
 Alpha virt. eigenvalues --    0.95663   0.95833   1.08663   1.11703   1.31642
 Alpha virt. eigenvalues --    1.32751   1.38639   1.66012   2.01013   2.02781
 Alpha virt. eigenvalues --    2.48301   2.75948   3.48423   3.48436   3.59130
 Alpha virt. eigenvalues --    3.65156   4.08844
  Beta  occ. eigenvalues --  -20.61089  -1.23328  -0.63846  -0.51167
  Beta virt. eigenvalues --    0.03710   0.06462   0.18180   0.20164   0.23208
  Beta virt. eigenvalues --    0.25804   0.32083   0.39565   0.40881   0.63960
  Beta virt. eigenvalues --    0.84925   0.99531   0.99638   1.11928   1.13215
  Beta virt. eigenvalues --    1.33151   1.40964   1.49817   1.68321   2.01780
  Beta virt. eigenvalues --    2.02440   2.51507   2.77538   3.58466   3.58536
  Beta virt. eigenvalues --    3.67032   3.68814   4.12269
          Condensed to atoms (all electrons):
              1          2
     1  O    7.933353   0.278908
     2  H    0.278908   0.508831
 Mulliken atomic charges:
              1
     1  O   -0.212261
     2  H    0.212261
 Sum of Mulliken atomic charges =   0.00000
 Mulliken charges with hydrogens summed into heavy atoms:
              1
     1  O    0.000000
 Sum of Mulliken charges with hydrogens summed into heavy atoms =   0.00000
          Atomic-Atomic Spin Densities.
              1          2
     1  O    1.080414  -0.006321
     2  H   -0.006321  -0.067773
 Mulliken atomic spin densities:
              1
     1  O    1.074094
     2  H   -0.074094
 Sum of Mulliken atomic spin densities =   1.00000
 Electronic spatial extent (au):  <R**2>=             15.4830
 Charge=              0.0000 electrons
 Dipole moment (field-independent basis, Debye):
    X=              0.0000    Y=              0.0000    Z=             -1.7749  Tot=              1.7749
 Quadrupole moment (field-independent basis, Debye-Ang):
   XX=             -5.4079   YY=             -6.7862   ZZ=             -4.5699
   XY=              0.0000   XZ=              0.0000   YZ=              0.0000
 Traceless Quadrupole moment (field-independent basis, Debye-Ang):
   XX=              0.1801   YY=             -1.1982   ZZ=              1.0181
   XY=              0.0000   XZ=              0.0000   YZ=              0.0000
 Octapole moment (field-independent basis, Debye-Ang**2):
  XXX=              0.0000  YYY=              0.0000  ZZZ=             -2.0765  XYY=              0.0000
  XXY=              0.0000  XXZ=             -0.1863  XZZ=              0.0000  YZZ=              0.0000
  YYZ=             -0.2616  XYZ=              0.0000
 Hexadecapole moment (field-independent basis, Debye-Ang**3):
 XXXX=             -3.7755 YYYY=             -5.9614 ZZZZ=             -5.5464 XXXY=              0.0000
 XXXZ=              0.0000 YYYX=              0.0000 YYYZ=              0.0000 ZZZX=              0.0000
 ZZZY=              0.0000 XXYY=             -1.6225 XXZZ=             -1.7913 YYZZ=             -2.1866
 XXYZ=              0.0000 YYXZ=              0.0000 ZZXY=              0.0000
 N-N= 4.340661314432D+00 E-N=-2.767705343900D+02  KE= 1.115286086347D+02
 Symmetry A1   KE= 1.021013183210D+02
 Symmetry A2   KE= 1.204485386253D-34
 Symmetry B1   KE= 2.508913004688D+00
 Symmetry B2   KE= 6.918377308978D+00
                          Isotropic Fermi Contact Couplings
        Atom                 a.u.       MegaHertz       Gauss      10(-4) cm-1
     1  O(17)              0.21155    -128.24203     -45.75994     -42.77694
     2  H(1)              -0.01603     -71.67415     -25.57512     -23.90792
 --------------------------------------------------------
       Center         ----  Spin Dipole Couplings  ----
                      3XX-RR        3YY-RR        3ZZ-RR
 --------------------------------------------------------
     1   Atom        3.550109     -1.761286     -1.788823
     2   Atom       -0.035461     -0.131986      0.167447
 --------------------------------------------------------
                        XY            XZ            YZ
 --------------------------------------------------------
     1   Atom        0.000000      0.000000      0.000000
     2   Atom        0.000000      0.000000      0.000000
 --------------------------------------------------------


 ---------------------------------------------------------------------------------
              Anisotropic Spin Dipole Couplings in Principal Axis System
 ---------------------------------------------------------------------------------

       Atom             a.u.   MegaHertz   Gauss  10(-4) cm-1        Axes

              Baa    -1.7888   129.438    46.187    43.176  0.0000  0.0000  1.0000
     1 O(17)  Bbb    -1.7613   127.445    45.476    42.511  0.0000  1.0000  0.0000
              Bcc     3.5501  -256.883   -91.662   -85.687  1.0000  0.0000  0.0000
 
              Baa    -0.1320   -70.421   -25.128   -23.490  0.0000  1.0000  0.0000
     2 H(1)   Bbb    -0.0355   -18.920    -6.751    -6.311  1.0000  0.0000  0.0000
              Bcc     0.1674    89.342    31.879    29.801  0.0000  0.0000  1.0000
 

 ---------------------------------------------------------------------------------

 1|1|UNPC-LAPTOP-CFEPOVL3|FOpt|UMP2-FC|Aug-CC-pVDZ|H1O1(2)|VALTER CARVA
 LHO|08-Aug-2016|0||# opt freq=noraman MP2/aug-cc-pvdz scf=xqc||Title C
 ard Required||0,2|O,0.,0.,0.1023241236|H,0.,0.,-0.8729691236||Version=
 IA32W-G09RevA.02|HF=-75.4034639|MP2=-75.5655718|PUHF=-75.4063957|PMP2-
 0=-75.5673414|S2=0.756633|S2-1=0.751361|S2A=0.750027|RMSD=6.410e-009|R
 MSF=6.730e-005|Dipole=0.,0.,-0.6568296|PG=C*V [C*(H1O1)]||@


 The number of Unix installations has grown to 10,
  with more expected.
                  -- The Unix Programmer's Manual,
                     2nd Edition, June, 1972.
 Job cpu time:  0 days  0 hours  0 minutes 15.0 seconds.
 File lengths (MBytes):  RWF=      5 Int=      0 D2E=      0 Chk=      1 Scr=      1
 Normal termination of Gaussian 09 at Mon Aug 08 17:02:03 2016.
 Link1:  Proceeding to internal job step number  2.
 ----------------------------------------------------------------------
 #N Geom=AllCheck Guess=TCheck SCRF=Check GenChk UMP2(FC)/Aug-CC-pVDZ F
 req
 ----------------------------------------------------------------------
 1/10=4,29=7,30=1,38=1,40=1/1,3;
 2/12=2,40=1/2;
 3/5=16,7=10,11=2,14=-4,16=1,25=1,30=1,70=2,71=2,116=2/1,2,3;
 4/5=101/1;
 5/5=2,8=3,13=1,98=1/2,8;
 8/6=3,8=1,10=1,19=11,30=-1/1;
 9/15=3,16=-3/6;
 11/6=1,8=1,15=11,17=12,24=-1,27=1,28=-2,29=300,32=6,42=3/1,2,10;
 10/6=2,21=1/2;
 8/6=4,8=1,10=1,19=11,30=-1/11,4;
 10/5=1,20=4/2;
 11/12=2,14=11,16=1,17=2,28=-2,42=3/2,10,12;
 6/7=2,8=2,9=2,10=2/1;
 7/8=1,10=1,12=2,25=1,44=2/1,2,3,16;
 1/10=4,30=1/3;
 99//99;
 -------------------
 Title Card Required
 -------------------
 Redundant internal coordinates taken from checkpoint file:
 OH.chk
 Charge =  0 Multiplicity = 2
 O,0,0.,0.,0.1023241236
 H,0,0.,0.,-0.8729691236
 Recover connectivity data from disk.

 GradGradGradGradGradGradGradGradGradGradGradGradGradGradGradGradGradGrad
 Berny optimization.
 Initialization pass.
                           ----------------------------
                           !    Initial Parameters    !
                           ! (Angstroms and Degrees)  !
 --------------------------                            --------------------------
 ! Name  Definition              Value          Derivative Info.                !
 --------------------------------------------------------------------------------
 ! R1    R(1,2)                  0.9753         calculate D2E/DX2 analytically  !
 --------------------------------------------------------------------------------
 Trust Radius=3.00D-01 FncErr=1.00D-07 GrdErr=1.00D-07
 Number of steps in this run=   2 maximum allowed number of steps=   2.
 GradGradGradGradGradGradGradGradGradGradGradGradGradGradGradGradGradGrad

                          Input orientation:                          
 ---------------------------------------------------------------------
 Center     Atomic      Atomic             Coordinates (Angstroms)
 Number     Number       Type             X           Y           Z
 ---------------------------------------------------------------------
      1          8           0        0.000000    0.000000    0.102324
      2          1           0        0.000000    0.000000   -0.872969
 ---------------------------------------------------------------------
 Stoichiometry    HO(2)
 Framework group  C*V[C*(HO)]
 Deg. of freedom     1
 Full point group                 C*V     NOp   4
 Largest Abelian subgroup         C2V     NOp   4
 Largest concise Abelian subgroup C1      NOp   1
                         Standard orientation:                         
 ---------------------------------------------------------------------
 Center     Atomic      Atomic             Coordinates (Angstroms)
 Number     Number       Type             X           Y           Z
 ---------------------------------------------------------------------
      1          8           0        0.000000    0.000000    0.108366
      2          1           0        0.000000    0.000000   -0.866927
 ---------------------------------------------------------------------
 Rotational constants (GHZ):      0.0000000    560.4006072    560.4006072
 Standard basis: Aug-CC-pVDZ (5D, 7F)
 There are    16 symmetry adapted basis functions of A1  symmetry.
 There are     2 symmetry adapted basis functions of A2  symmetry.
 There are     7 symmetry adapted basis functions of B1  symmetry.
 There are     7 symmetry adapted basis functions of B2  symmetry.
 Integral buffers will be    262144 words long.
 Raffenetti 2 integral format.
 Two-electron integral symmetry is turned on.
    32 basis functions,    54 primitive gaussians,    34 cartesian basis functions
     5 alpha electrons        4 beta electrons
       nuclear repulsion energy         4.3406613144 Hartrees.
 NAtoms=    2 NActive=    2 NUniq=    2 SFac= 7.50D-01 NAtFMM=   80 NAOKFM=F Big=F
 One-electron integrals computed using PRISM.
 NBasis=    32 RedAO= T  NBF=    16     2     7     7
 NBsUse=    32 1.00D-06 NBFU=    16     2     7     7
 Initial guess read from the checkpoint file:  OH.chk
 B after Tr=     0.000000    0.000000    0.000000
         Rot=    1.000000    0.000000    0.000000    0.000000 Ang=   0.00 deg.
 Initial guess orbital symmetries:
 Alpha Orbitals:
       Occupied  (SG) (SG) (SG) (PI) (PI)
       Virtual   (SG) (SG) (PI) (PI) (SG) (SG) (PI) (PI) (SG) (?A)
                 (?A) (?A) (PI) (PI) (SG) (PI) (PI) (SG) (PI) (PI)
                 (SG) (SG) (?B) (?B) (PI) (PI) (?B)
 Beta  Orbitals:
       Occupied  (SG) (SG) (SG) (?A)
       Virtual   (SG) (?A) (SG) (?A) (SG) (?A) (SG) (?A) (?A) (SG)
                 (?B) (?B) (?B) (PI) (PI) (SG) (?A) (?A) (SG) (PI)
                 (PI) (SG) (SG) (DLTA) (DLTA) (PI) (PI) (SG)
 Initial guess <Sx>= 0.0000 <Sy>= 0.0000 <Sz>= 0.5000 <S**2>= 0.7566 S= 0.5033
 Requested convergence on RMS density matrix=1.00D-08 within  64 cycles.
 Requested convergence on MAX density matrix=1.00D-06.
 Requested convergence on             energy=1.00D-06.
 No special actions if energy rises.
 Keep R1 and R2 ints in memory in canonical form, NReq=1184074.
 SCF Done:  E(UHF) =  -75.4034639167     A.U. after    1 cycles
             Convg  =    0.7821D-09             -V/T =  2.0013
 <Sx>= 0.0000 <Sy>= 0.0000 <Sz>= 0.5000 <S**2>= 0.7566 S= 0.5033
 <L.S>= 0.000000000000E+00
 Annihilation of the first spin contaminant:
 S**2 before annihilation     0.7566,   after     0.7500
 QCSCF skips out because SCF is already converged.
 ExpMin= 2.97D-02 ExpMax= 1.17D+04 ExpMxC= 4.01D+02 IAcc=3 IRadAn=         5 AccDes= 0.00D+00
 HarFok:  IExCor=  205 AccDes= 0.00D+00 IRadAn=         5 IDoV=-2
 ScaDFX=  1.000000  1.000000  1.000000  1.000000
 Range of M.O.s used for correlation:     2    32
 NBasis=    32 NAE=     5 NBE=     4 NFC=     1 NFV=     0
 NROrb=     31 NOA=     4 NOB=     3 NVA=    27 NVB=    28
 Disk-based method using ON**2 memory for  4 occupieds at a time.
 Permanent disk used for amplitudes=       20898 words.
 Estimated scratch disk usage=     1201664 words.
 Actual    scratch disk usage=     1201664 words.
 JobTyp=2 Pass  1:  I=   2 to   5 NPSUse=  1 ParTrn=F ParDer=F DoDerP=T.
 (rs|ai) integrals will be sorted in core.
 Actual    scratch disk usage=     1201664 words.
 JobTyp=3 Pass  1:  I=   2 to   4 NPSUse=  1 ParTrn=F ParDer=F DoDerP=T.
 (rs|ai) integrals will be sorted in core.
 Spin components of T(2) and E(2):
     alpha-alpha T2 =       0.6889403954D-02 E2=     -0.2680449570D-01
     alpha-beta  T2 =       0.3160127576D-01 E2=     -0.1224652659D+00
     beta-beta   T2 =       0.3530205941D-02 E2=     -0.1283816435D-01
 (S**2,0)=  0.75663D+00           (S**2,1)=  0.75136D+00
 E(PUHF)=      -0.75406395669D+02        E(PMP2)=      -0.75567341384D+02
 ANorm=    0.1020794243D+01
 E2 =    -0.1621079260D+00 EUMP2 =    -0.75565571842666D+02
 G2DrvN: will do     3 centers at a time, making    1 passes doing MaxLOS=2.
 Calling FoFCou, ICntrl=  3107 FMM=F I1Cent=   0 AccDes= 0.00D+00.
 FoFDir/FoFCou used for L=0 through L=2.
 End of G2Drv Frequency-dependent properties file   721 does not exist.
 End of G2Drv Frequency-dependent properties file   722 does not exist.
          IDoAtm=11
          Differentiating once with respect to electric field.
                with respect to dipole field.
          Differentiating once with respect to nuclear coordinates.
          Keep R1 and R2 ints in memory in canonical form, NReq=1175030.
          There are     9 degrees of freedom in the 1st order CPHF.  IDoFFX=5.
      6 vectors produced by pass  0 Test12= 2.74D-15 1.11D-08 XBig12= 3.13D+00 7.36D-01.
 AX will form     6 AO Fock derivatives at one time.
      6 vectors produced by pass  1 Test12= 2.74D-15 1.11D-08 XBig12= 1.38D-01 1.24D-01.
      6 vectors produced by pass  2 Test12= 2.74D-15 1.11D-08 XBig12= 7.17D-03 2.37D-02.
      6 vectors produced by pass  3 Test12= 2.74D-15 1.11D-08 XBig12= 1.16D-04 3.32D-03.
      6 vectors produced by pass  4 Test12= 2.74D-15 1.11D-08 XBig12= 1.17D-06 3.72D-04.
      6 vectors produced by pass  5 Test12= 2.74D-15 1.11D-08 XBig12= 2.34D-08 5.12D-05.
      6 vectors produced by pass  6 Test12= 2.74D-15 1.11D-08 XBig12= 2.98D-10 5.64D-06.
      5 vectors produced by pass  7 Test12= 2.74D-15 1.11D-08 XBig12= 3.02D-12 6.10D-07.
      3 vectors produced by pass  8 Test12= 2.74D-15 1.11D-08 XBig12= 4.72D-14 5.60D-08.
      1 vectors produced by pass  9 Test12= 2.74D-15 1.11D-08 XBig12= 7.89D-16 1.15D-08.
 Inverted reduced A of dimension    51 with in-core refinement.
 End of Minotr Frequency-dependent properties file   721 does not exist.
 End of Minotr Frequency-dependent properties file   722 does not exist.
 MDV=   104857600.
 Form MO integral derivatives with frozen-active canonical formalism.
 Discarding MO integrals.
 Reordered first order wavefunction length =        87297
 In DefCFB: NBatch=  1 ICI=  5 ICA= 28 LFMax= 28
            Large arrays: LIAPS=     1074944 LIARS=     1666000 words.
 In DefCFB: NBatch=  1 ICI=  5 ICA= 28 LFMax= 28
            Large arrays: LIAPS=     1074944 LIARS=     1666000 words.
 Semi-Direct transformation.
 ModeAB=           2 MOrb=             5 LenV=     104690235
 LASXX=        70525 LTotXX=       70525 LenRXX=       70525
 LTotAB=       79200 MaxLAS=       95200 LenRXY=       95200
 NonZer=      141050 LenScr=     1048064 LnRSAI=           0
 LnScr1=           0 LExtra=           0 Total=      1213789
 MaxDsk=          -1 SrtSym=           F ITran=            4
 JobTyp=1 Pass  1:  I=   1 to   5.
 (rs|ai) integrals will be sorted in core.
 ModeAB=           2 MOrb=             4 LenV=     104690235
 LASXX=        57841 LTotXX=       57841 LenRXX=       76160
 LTotAB=       46116 MaxLAS=       76160 LenRXY=       46116
 NonZer=      115682 LenScr=     1048064 LnRSAI=           0
 LnScr1=           0 LExtra=           0 Total=      1170340
 MaxDsk=          -1 SrtSym=           F ITran=            4
 JobTyp=2 Pass  1:  I=   1 to   4.
 (rs|ai) integrals will be sorted in core.
 Spin components of T(2) and E(2):
     alpha-alpha T2 =       0.6889403954D-02 E2=     -0.2680449570D-01
     alpha-beta  T2 =       0.3160127576D-01 E2=     -0.1224652659D+00
     beta-beta   T2 =       0.3530205941D-02 E2=     -0.1283816435D-01
 ANorm=    0.1443621062D+01
 E2 =    -0.1621079260D+00 EUMP2 =    -0.75565571842666D+02
 (S**2,0)=  0.75663D+00           (S**2,1)=  0.75617D+00
 E(PUHF)=      -0.75403804334D+02        E(PMP2)=      -0.75565900459D+02
          IDoAtm=11
          Differentiating once with respect to electric field.
                with respect to dipole field.
          Differentiating once with respect to nuclear coordinates.
          There are     1 degrees of freedom in the 1st order CPHF.  IDoFFX=0.
 LinEq1:  Iter=  0 NonCon=     1 RMS=4.14D-03 Max=2.82D-02
 LinEq1:  Iter=  1 NonCon=     1 RMS=9.31D-04 Max=4.30D-03
 LinEq1:  Iter=  2 NonCon=     1 RMS=2.89D-04 Max=1.71D-03
 LinEq1:  Iter=  3 NonCon=     1 RMS=6.18D-05 Max=3.18D-04
 LinEq1:  Iter=  4 NonCon=     1 RMS=1.12D-05 Max=7.11D-05
 LinEq1:  Iter=  5 NonCon=     1 RMS=1.47D-06 Max=7.27D-06
 LinEq1:  Iter=  6 NonCon=     1 RMS=2.70D-07 Max=1.97D-06
 LinEq1:  Iter=  7 NonCon=     1 RMS=5.15D-08 Max=2.74D-07
 LinEq1:  Iter=  8 NonCon=     1 RMS=6.25D-09 Max=2.64D-08
 LinEq1:  Iter=  9 NonCon=     1 RMS=7.01D-10 Max=3.28D-09
 LinEq1:  Iter= 10 NonCon=     0 RMS=6.01D-11 Max=2.83D-10
 Linear equations converged to 1.000D-10 1.000D-09 after    10 iterations.
 End of Minotr Frequency-dependent properties file   721 does not exist.
 End of Minotr Frequency-dependent properties file   722 does not exist.
 Symmetrizing basis deriv contribution to polar:
 IMax=3 JMax=2 DiffMx= 0.00D+00
 G2DrvN: will do     3 centers at a time, making    1 passes doing MaxLOS=2.
 Calling FoFCou, ICntrl=  3107 FMM=F I1Cent=   0 AccDes= 0.00D+00.
 FoFDir/FoFCou used for L=0 through L=2.
 End of G2Drv Frequency-dependent properties file   721 does not exist.
 End of G2Drv Frequency-dependent properties file   722 does not exist.
 R2 and R3 integrals will be kept in memory, NReq=     1174620.
 DD1Dir will call FoFMem   1 times, MxPair=        56
 NAB=    20 NAA=    10 NBB=     6.
 Discarding MO integrals.

 **********************************************************************

            Population analysis using the SCF density.

 **********************************************************************

 Orbital symmetries:
 Alpha Orbitals:
       Occupied  (SG) (SG) (SG) (PI) (PI)
       Virtual   (SG) (SG) (PI) (PI) (SG) (SG) (PI) (PI) (SG) (?A)
                 (?A) (?A) (PI) (PI) (SG) (PI) (PI) (SG) (PI) (PI)
                 (SG) (SG) (?B) (?B) (PI) (PI) (?B)
 Beta  Orbitals:
       Occupied  (SG) (SG) (SG) (?A)
       Virtual   (SG) (?A) (SG) (?A) (SG) (?A) (SG) (?A) (?A) (SG)
                 (?B) (?B) (?B) (PI) (PI) (SG) (?A) (?A) (SG) (PI)
                 (PI) (SG) (SG) (DLTA) (DLTA) (PI) (PI) (SG)
 Unable to determine electronic state:  an orbital has unidentified symmetry.
 Alpha  occ. eigenvalues --  -20.65182  -1.39147  -0.68271  -0.65691  -0.56138
 Alpha virt. eigenvalues --    0.03563   0.17833   0.18526   0.19818   0.22524
 Alpha virt. eigenvalues --    0.31569   0.38582   0.39612   0.62477   0.83922
 Alpha virt. eigenvalues --    0.95663   0.95833   1.08663   1.11703   1.31642
 Alpha virt. eigenvalues --    1.32751   1.38639   1.66012   2.01013   2.02781
 Alpha virt. eigenvalues --    2.48301   2.75948   3.48423   3.48436   3.59130
 Alpha virt. eigenvalues --    3.65156   4.08844
  Beta  occ. eigenvalues --  -20.61089  -1.23328  -0.63846  -0.51167
  Beta virt. eigenvalues --    0.03710   0.06462   0.18180   0.20164   0.23208
  Beta virt. eigenvalues --    0.25804   0.32083   0.39565   0.40881   0.63960
  Beta virt. eigenvalues --    0.84925   0.99531   0.99638   1.11928   1.13215
  Beta virt. eigenvalues --    1.33151   1.40964   1.49817   1.68321   2.01780
  Beta virt. eigenvalues --    2.02440   2.51507   2.77538   3.58466   3.58536
  Beta virt. eigenvalues --    3.67032   3.68814   4.12269
          Condensed to atoms (all electrons):
              1          2
     1  O    7.933353   0.278908
     2  H    0.278908   0.508831
 Mulliken atomic charges:
              1
     1  O   -0.212261
     2  H    0.212261
 Sum of Mulliken atomic charges =   0.00000
 Mulliken charges with hydrogens summed into heavy atoms:
              1
     1  O    0.000000
 Sum of Mulliken charges with hydrogens summed into heavy atoms =   0.00000
          Atomic-Atomic Spin Densities.
              1          2
     1  O    1.080414  -0.006321
     2  H   -0.006321  -0.067773
 Mulliken atomic spin densities:
              1
     1  O    1.074094
     2  H   -0.074094
 Sum of Mulliken atomic spin densities =   1.00000
 APT atomic charges:
              1
     1  O   -0.279477
     2  H    0.279477
 Sum of APT charges=   0.00000
 APT Atomic charges with hydrogens summed into heavy atoms:
              1
     1  O    0.000000
     2  H    0.000000
 Sum of APT charges=   0.00000
 Electronic spatial extent (au):  <R**2>=             15.4830
 Charge=              0.0000 electrons
 Dipole moment (field-independent basis, Debye):
    X=              0.0000    Y=              0.0000    Z=             -1.7749  Tot=              1.7749
 Quadrupole moment (field-independent basis, Debye-Ang):
   XX=             -5.4079   YY=             -6.7862   ZZ=             -4.5699
   XY=              0.0000   XZ=              0.0000   YZ=              0.0000
 Traceless Quadrupole moment (field-independent basis, Debye-Ang):
   XX=              0.1801   YY=             -1.1982   ZZ=              1.0181
   XY=              0.0000   XZ=              0.0000   YZ=              0.0000
 Octapole moment (field-independent basis, Debye-Ang**2):
  XXX=              0.0000  YYY=              0.0000  ZZZ=             -2.0765  XYY=              0.0000
  XXY=              0.0000  XXZ=             -0.1863  XZZ=              0.0000  YZZ=              0.0000
  YYZ=             -0.2616  XYZ=              0.0000
 Hexadecapole moment (field-independent basis, Debye-Ang**3):
 XXXX=             -3.7755 YYYY=             -5.9614 ZZZZ=             -5.5464 XXXY=              0.0000
 XXXZ=              0.0000 YYYX=              0.0000 YYYZ=              0.0000 ZZZX=              0.0000
 ZZZY=              0.0000 XXYY=             -1.6225 XXZZ=             -1.7913 YYZZ=             -2.1866
 XXYZ=              0.0000 YYXZ=              0.0000 ZZXY=              0.0000
 N-N= 4.340661314432D+00 E-N=-2.767705345585D+02  KE= 1.115286087193D+02
 Symmetry A1   KE= 1.021013183459D+02
 Symmetry A2   KE= 1.204485500993D-34
 Symmetry B1   KE= 2.508912991009D+00
 Symmetry B2   KE= 6.918377382361D+00
  Exact polarizability:   5.322   0.000   6.725   0.000   0.000   8.325
 Approx polarizability:   4.066   0.000   4.602   0.000   0.000   6.460
                          Isotropic Fermi Contact Couplings
        Atom                 a.u.       MegaHertz       Gauss      10(-4) cm-1
     1  O(17)              0.21155    -128.24201     -45.75994     -42.77693
     2  H(1)              -0.01603     -71.67416     -25.57512     -23.90793
 --------------------------------------------------------
       Center         ----  Spin Dipole Couplings  ----
                      3XX-RR        3YY-RR        3ZZ-RR
 --------------------------------------------------------
     1   Atom        3.550109     -1.761286     -1.788823
     2   Atom       -0.035461     -0.131986      0.167447
 --------------------------------------------------------
                        XY            XZ            YZ
 --------------------------------------------------------
     1   Atom        0.000000      0.000000      0.000000
     2   Atom        0.000000      0.000000      0.000000
 --------------------------------------------------------


 ---------------------------------------------------------------------------------
              Anisotropic Spin Dipole Couplings in Principal Axis System
 ---------------------------------------------------------------------------------

       Atom             a.u.   MegaHertz   Gauss  10(-4) cm-1        Axes

              Baa    -1.7888   129.438    46.187    43.176  0.0000  0.0000  1.0000
     1 O(17)  Bbb    -1.7613   127.445    45.476    42.511  0.0000  1.0000  0.0000
              Bcc     3.5501  -256.883   -91.662   -85.687  1.0000  0.0000  0.0000
 
              Baa    -0.1320   -70.421   -25.128   -23.490  0.0000  1.0000  0.0000
     2 H(1)   Bbb    -0.0355   -18.920    -6.751    -6.311  1.0000  0.0000  0.0000
              Bcc     0.1674    89.342    31.879    29.801  0.0000  0.0000  1.0000
 

 ---------------------------------------------------------------------------------

 Calling FoFJK, ICntrl=    100127 FMM=F ISym2X=1 I1Cent= 0 IOpClX= 1 NMat=1 NMatS=1 NMatT=0.
 Full mass-weighted force constant matrix:
 Low frequencies ---    0.0017    0.0018    0.0018   41.9829   41.9893 3766.2545
 Diagonal vibrational polarizability:
        0.0000000       0.0000000       0.0308051
 Harmonic frequencies (cm**-1), IR intensities (KM/Mole), Raman scattering
 activities (A**4/AMU), depolarization ratios for plane and unpolarized
 incident light, reduced masses (AMU), force constants (mDyne/A),
 and normal coordinates:
                     1
                    SG
 Frequencies --  3766.2545
 Red. masses --     1.0671
 Frc consts  --     8.9181
 IR Inten    --    16.2371
  Atom  AN      X      Y      Z
     1   8     0.00   0.00   0.06
     2   1     0.00   0.00  -1.00

 -------------------
 - Thermochemistry -
 -------------------
 Temperature   298.150 Kelvin.  Pressure   1.00000 Atm.
 Atom     1 has atomic number  8 and mass  15.99491
 Atom     2 has atomic number  1 and mass   1.00783
 Molecular mass:    17.00274 amu.
 Principal axes and moments of inertia in atomic units:
                           1         2         3
     Eigenvalues --     0.00000   3.22045   3.22045
           X            0.00000   0.00000   1.00000
           Y            0.00000   1.00000   0.00000
           Z            1.00000   0.00000   0.00000
 This molecule is a prolate symmetric top.
 Rotational symmetry number  1.
 Rotational temperature (Kelvin)     26.89496
 Rotational constant (GHZ):         560.400607
 Zero-point vibrational energy      22527.2 (Joules/Mol)
                                    5.38413 (Kcal/Mol)
 Vibrational temperatures:   5418.79
          (Kelvin)
 
 Zero-point correction=                           0.008580 (Hartree/Particle)
 Thermal correction to Energy=                    0.010941
 Thermal correction to Enthalpy=                  0.011885
 Thermal correction to Gibbs Free Energy=        -0.008347
 Sum of electronic and zero-point Energies=            -75.556992
 Sum of electronic and thermal Energies=               -75.554631
 Sum of electronic and thermal Enthalpies=             -75.553687
 Sum of electronic and thermal Free Energies=          -75.573919
 
                     E (Thermal)             CV                S
                      KCal/Mol        Cal/Mol-Kelvin    Cal/Mol-Kelvin
 Total                    6.865              4.968             42.582
 Electronic               0.000              0.000              1.377
 Translational            0.889              2.981             34.437
 Rotational               0.592              1.987              6.768
 Vibrational              5.384              0.000              0.000
                       Q            Log10(Q)             Ln(Q)
 Total Bot       0.690934D+04          3.839437          8.840630
 Total V=0       0.610981D+08          7.786028         17.927991
 Vib (Bot)       0.113086D-03         -3.946591         -9.087361
 Vib (V=0)       0.100000D+01          0.000000          0.000000
 Electronic      0.200000D+01          0.301030          0.693147
 Translational   0.275571D+07          6.440234         14.829186
 Rotational      0.110857D+02          1.044764          2.405658
 ***** Axes restored to original set *****
 -------------------------------------------------------------------
 Center     Atomic                   Forces (Hartrees/Bohr)
 Number     Number              X              Y              Z
 -------------------------------------------------------------------
      1        8           0.000000000    0.000000000   -0.000116565
      2        1           0.000000000    0.000000000    0.000116565
 -------------------------------------------------------------------
 Cartesian Forces:  Max     0.000116565 RMS     0.000067299

 GradGradGradGradGradGradGradGradGradGradGradGradGradGradGradGradGradGrad
 Berny optimization.
 Internal  Forces:  Max     0.000116565 RMS     0.000116565
 Search for a local minimum.
 Step number   1 out of a maximum of    2
 All quantities printed in internal units (Hartrees-Bohrs-Radians)
 Second derivative matrix not updated -- analytic derivatives used.
 The second derivative matrix:
                          R1
           R1           0.50893
     Eigenvalues ---    0.50893
 Angle between quadratic step and forces=   0.00 degrees.
 Linear search not attempted -- first point.
 Iteration  1 RMS(Cart)=  0.00016196 RMS(Int)=  0.00000000
 Iteration  2 RMS(Cart)=  0.00000000 RMS(Int)=  0.00000000
 ClnCor:  largest displacement from symmetrization is 0.00D+00 for atom     0.
 Variable       Old X    -DE/DX   Delta X   Delta X   Delta X     New X
                                 (Linear)    (Quad)   (Total)
    R1        1.84304  -0.00012   0.00000  -0.00023  -0.00023   1.84281
         Item               Value     Threshold  Converged?
 Maximum Force            0.000117     0.000450     YES
 RMS     Force            0.000117     0.000300     YES
 Maximum Displacement     0.000115     0.001800     YES
 RMS     Displacement     0.000162     0.001200     YES
 Predicted change in Energy=-1.334900D-08
 Optimization completed.
    -- Stationary point found.
                           ----------------------------
                           !   Optimized Parameters   !
                           ! (Angstroms and Degrees)  !
 --------------------------                            --------------------------
 ! Name  Definition              Value          Derivative Info.                !
 --------------------------------------------------------------------------------
 ! R1    R(1,2)                  0.9753         -DE/DX =   -0.0001              !
 --------------------------------------------------------------------------------
 GradGradGradGradGradGradGradGradGradGradGradGradGradGradGradGradGradGrad

 1|1|UNPC-LAPTOP-CFEPOVL3|Freq|UMP2-FC|Aug-CC-pVDZ|H1O1(2)|VALTER CARVA
 LHO|08-Aug-2016|0||#N Geom=AllCheck Guess=TCheck SCRF=Check GenChk UMP
 2(FC)/Aug-CC-pVDZ Freq||Title Card Required||0,2|O,0.,0.,0.1023241236|
 H,0.,0.,-0.8729691236||Version=IA32W-G09RevA.02|HF=-75.4034639|MP2=-75
 .5655718|PUHF=-75.4038043|PMP2-0=-75.5659005|S2=0.756633|S2-1=0.756172
 |S2A=0.750027|RMSD=7.821e-010|RMSF=6.730e-005|ZeroPoint=0.0085802|Ther
 mal=0.0109406|Dipole=0.,0.,-0.6568296|DipoleDeriv=-0.3563844,0.,0.,0.,
 -0.3563844,0.,0.,0.,-0.1256617,0.3563844,0.,0.,0.,0.3563844,0.,0.,0.,0
 .1256617|Polar=5.3218122,0.,6.7245705,0.,0.,8.3252804|PG=C*V [C*(H1O1)
 ]|NImag=0||0.00006324,0.,0.00006326,0.,0.,0.50893103,-0.00006324,0.,0.
 ,0.00006324,0.,-0.00006326,0.,0.,0.00006326,0.,0.,-0.50893103,0.,0.,0.
 50893103||0.,0.,0.00011657,0.,0.,-0.00011657|||@


 The number of Unix installations has grown to 10,
  with more expected.
                  -- The Unix Programmer's Manual,
                     2nd Edition, June, 1972.
 Job cpu time:  0 days  0 hours  0 minutes 16.0 seconds.
 File lengths (MBytes):  RWF=     29 Int=      0 D2E=      0 Chk=      1 Scr=      1
 Normal termination of Gaussian 09 at Mon Aug 08 17:02:20 2016.
