 Entering Link 1 = C:\G09W\l1.exe PID=     15260.
  
 Copyright (c) 1988,1990,1992,1993,1995,1998,2003,2009, Gaussian, Inc.
                  All Rights Reserved.
  
 This is part of the Gaussian(R) 09 program.  It is based on
 the Gaussian(R) 03 system (copyright 2003, Gaussian, Inc.),
 the Gaussian(R) 98 system (copyright 1998, Gaussian, Inc.),
 the Gaussian(R) 94 system (copyright 1995, Gaussian, Inc.),
 the Gaussian 92(TM) system (copyright 1992, Gaussian, Inc.),
 the Gaussian 90(TM) system (copyright 1990, Gaussian, Inc.),
 the Gaussian 88(TM) system (copyright 1988, Gaussian, Inc.),
 the Gaussian 86(TM) system (copyright 1986, Carnegie Mellon
 University), and the Gaussian 82(TM) system (copyright 1983,
 Carnegie Mellon University). Gaussian is a federally registered
 trademark of Gaussian, Inc.
  
 This software contains proprietary and confidential information,
 including trade secrets, belonging to Gaussian, Inc.
  
 This software is provided under written license and may be
 used, copied, transmitted, or stored only in accord with that
 written license.
  
 The following legend is applicable only to US Government
 contracts under FAR:
  
                    RESTRICTED RIGHTS LEGEND
  
 Use, reproduction and disclosure by the US Government is
 subject to restrictions as set forth in subparagraphs (a)
 and (c) of the Commercial Computer Software - Restricted
 Rights clause in FAR 52.227-19.
  
 Gaussian, Inc.
 340 Quinnipiac St., Bldg. 40, Wallingford CT 06492
  
  
 ---------------------------------------------------------------
 Warning -- This program may not be used in any manner that
 competes with the business of Gaussian, Inc. or will provide
 assistance to any competitor of Gaussian, Inc.  The licensee
 of this program is prohibited from giving any competitor of
 Gaussian, Inc. access to this program.  By using this program,
 the user acknowledges that Gaussian, Inc. is engaged in the
 business of creating and licensing software in the field of
 computational chemistry and represents and warrants to the
 licensee that it is not a competitor of Gaussian, Inc. and that
 it will not use this program in any manner prohibited above.
 ---------------------------------------------------------------
  

 Cite this work as:
 Gaussian 09, Revision A.02,
 M. J. Frisch, G. W. Trucks, H. B. Schlegel, G. E. Scuseria, 
 M. A. Robb, J. R. Cheeseman, G. Scalmani, V. Barone, B. Mennucci, 
 G. A. Petersson, H. Nakatsuji, M. Caricato, X. Li, H. P. Hratchian, 
 A. F. Izmaylov, J. Bloino, G. Zheng, J. L. Sonnenberg, M. Hada, 
 M. Ehara, K. Toyota, R. Fukuda, J. Hasegawa, M. Ishida, T. Nakajima, 
 Y. Honda, O. Kitao, H. Nakai, T. Vreven, J. A. Montgomery, Jr., 
 J. E. Peralta, F. Ogliaro, M. Bearpark, J. J. Heyd, E. Brothers, 
 K. N. Kudin, V. N. Staroverov, R. Kobayashi, J. Normand, 
 K. Raghavachari, A. Rendell, J. C. Burant, S. S. Iyengar, J. Tomasi, 
 M. Cossi, N. Rega, J. M. Millam, M. Klene, J. E. Knox, J. B. Cross, 
 V. Bakken, C. Adamo, J. Jaramillo, R. Gomperts, R. E. Stratmann, 
 O. Yazyev, A. J. Austin, R. Cammi, C. Pomelli, J. W. Ochterski, 
 R. L. Martin, K. Morokuma, V. G. Zakrzewski, G. A. Voth, 
 P. Salvador, J. J. Dannenberg, S. Dapprich, A. D. Daniels, 
 O. Farkas, J. B. Foresman, J. V. Ortiz, J. Cioslowski, 
 and D. J. Fox, Gaussian, Inc., Wallingford CT, 2009.
 
 ******************************************
 Gaussian 09:  IA32W-G09RevA.02 11-Jun-2009
                08-Aug-2016 
 ******************************************
 %chk=OPT_TS.chk
 %mem=150mw
 ----------------------------------------------------------------------
 # freq=noraman MP2/aug-cc-pvdz scf=(xqc,direct,maxcycle=1000) opt=(ts,
 calcfc,maxcycle=100000,noeigentest)
 ----------------------------------------------------------------------
 1/5=1,6=100000,10=4,11=1,18=20,38=1/1,3;
 2/9=110,12=2,17=6,18=5,40=1/2;
 3/5=16,7=10,11=9,16=1,25=1,30=1,71=2/1,2,3;
 4//1;
 5/5=2,7=1000,8=3,13=1,38=5/2,8;
 8/6=3,8=1,10=1,19=11,30=-1/1;
 9/15=3,16=-3/6;
 11/6=1,8=1,15=11,17=12,24=-1,27=1,28=-2,29=300,32=6,42=3/1,2,10;
 10/6=2,21=1/2;
 8/6=4,8=1,10=1,19=11,30=-1/11,4;
 10/5=1,20=4/2;
 11/12=2,14=11,16=1,17=2,28=-2,42=3/2,10,12;
 6/7=2,8=2,9=2,10=2/1;
 7/10=1,12=2,25=1,44=2/1,2,3,16;
 1/5=1,6=100000,10=4,11=1,18=20/3(2);
 2/9=110/2;
 99//99;
 2/9=110/2;
 3/5=16,7=10,11=9,16=1,25=1,30=1,71=1/1,2,3;
 4/5=5,16=3/1;
 5/5=2,7=1000,8=3,13=1,38=5/2,8;
 8/6=4,10=1/1;
 9/15=2,16=-3/6;
 10/5=1/2;
 7/12=2/1,2,3,16;
 1/5=1,6=100000,11=1,18=20/3(-8);
 2/9=110/2;
 6/7=2,8=2,9=2,10=2/1;
 99//99;
 -------------------
 Title Card Required
 -------------------
 Symbolic Z-matrix:
 Charge =  0 Multiplicity = 2
 O                     1.75932  -0.08658  -0.01996 
 H                     0.47157  -0.27216   0.13283 
 H                     1.88798   0.85716   0.21069 
 Cl                   -0.77733   0.16053  -0.29744 
 

 GradGradGradGradGradGradGradGradGradGradGradGradGradGradGradGradGradGrad
 Berny optimization.
 Initialization pass.
                           ----------------------------
                           !    Initial Parameters    !
                           ! (Angstroms and Degrees)  !
 --------------------------                            --------------------------
 ! Name  Definition              Value          Derivative Info.                !
 --------------------------------------------------------------------------------
 ! R1    R(1,2)                  1.31           calculate D2E/DX2 analytically  !
 ! R2    R(1,3)                  0.98           calculate D2E/DX2 analytically  !
 ! R3    R(2,4)                  1.39           calculate D2E/DX2 analytically  !
 ! A1    A(2,1,3)              103.77           calculate D2E/DX2 analytically  !
 ! A2    A(1,2,4)              143.42           calculate D2E/DX2 analytically  !
 ! D1    D(3,1,2,4)             58.77           calculate D2E/DX2 analytically  !
 --------------------------------------------------------------------------------
 Trust Radius=3.00D-01 FncErr=1.00D-07 GrdErr=1.00D-07
 Number of steps in this run= 100 maximum allowed number of steps= 100.
 Search for a saddle point of order  1.
 GradGradGradGradGradGradGradGradGradGradGradGradGradGradGradGradGradGrad

                          Input orientation:                          
 ---------------------------------------------------------------------
 Center     Atomic      Atomic             Coordinates (Angstroms)
 Number     Number       Type             X           Y           Z
 ---------------------------------------------------------------------
      1          8           0        1.759323   -0.086579   -0.019963
      2          1           0        0.471568   -0.272160    0.132834
      3          1           0        1.887980    0.857162    0.210686
      4         17           0       -0.777329    0.160532   -0.297440
 ---------------------------------------------------------------------
                    Distance matrix (angstroms):
                    1          2          3          4
     1  O    0.000000
     2  H    1.310000   0.000000
     3  H    0.980000   1.813189   0.000000
     4  Cl   2.563720   1.390000   2.801313   0.000000
 Stoichiometry    ClH2O(2)
 Framework group  C1[X(ClH2O)]
 Deg. of freedom     6
 Full point group                 C1      NOp   1
 Largest Abelian subgroup         C1      NOp   1
 Largest concise Abelian subgroup C1      NOp   1
                         Standard orientation:                         
 ---------------------------------------------------------------------
 Center     Atomic      Atomic             Coordinates (Angstroms)
 Number     Number       Type             X           Y           Z
 ---------------------------------------------------------------------
      1          8           0        1.655213   -0.093279   -0.030478
      2          1           0        0.408115   -0.317684    0.301920
      3          1           0        1.757013    0.874494    0.085502
      4         17           0       -0.906284    0.011143   -0.008447
 ---------------------------------------------------------------------
 Rotational constants (GHZ):    461.3610364      6.6681577      6.5924380
 Standard basis: Aug-CC-pVDZ (5D, 7F)
 There are    68 symmetry adapted basis functions of A   symmetry.
 Integral buffers will be    262144 words long.
 Raffenetti 2 integral format.
 Two-electron integral symmetry is turned on.
    68 basis functions,   146 primitive gaussians,    72 cartesian basis functions
    14 alpha electrons       13 beta electrons
       nuclear repulsion energy        45.5983376840 Hartrees.
 NAtoms=    4 NActive=    4 NUniq=    4 SFac= 7.50D-01 NAtFMM=   80 NAOKFM=F Big=F
 One-electron integrals computed using PRISM.
 NBasis=    68 RedAO= T  NBF=    68
 NBsUse=    68 1.00D-06 NBFU=    68
 Harris functional with IExCor=  205 diagonalized for initial guess.
 ExpMin= 2.97D-02 ExpMax= 1.28D+05 ExpMxC= 1.24D+03 IAcc=3 IRadAn=         0 AccDes= 0.00D+00
 HarFok:  IExCor=  205 AccDes= 0.00D+00 IRadAn=         0 IDoV= 1
 ScaDFX=  1.000000  1.000000  1.000000  1.000000
 FoFCou: FMM=F IPFlag=           0 FMFlag=      100000 FMFlg1=           0
         NFxFlg=           0 DoJE=T BraDBF=F KetDBF=T FulRan=T
         Omega=  0.000000  0.000000  1.000000  0.000000  0.000000 ICntrl=     500 IOpCl=  0
         NMat0=    1 NMatS0=    1 NMatT0=    0 NMatD0=    1 NMtDS0=    0 NMtDT0=    0
         I1Cent=           4 NGrid=           0.
 Petite list used in FoFCou.
 Initial guess orbital symmetries:
 Alpha Orbitals:
       Occupied  (A) (A) (A) (A) (A) (A) (A) (A) (A) (A) (A) (A)
                 (A) (A)
       Virtual   (A) (A) (A) (A) (A) (A) (A) (A) (A) (A) (A) (A)
                 (A) (A) (A) (A) (A) (A) (A) (A) (A) (A) (A) (A)
                 (A) (A) (A) (A) (A) (A) (A) (A) (A) (A) (A) (A)
                 (A) (A) (A) (A) (A) (A) (A) (A) (A) (A) (A) (A)
                 (A) (A) (A) (A) (A) (A)
 Beta  Orbitals:
       Occupied  (A) (A) (A) (A) (A) (A) (A) (A) (A) (A) (A) (A)
                 (A)
       Virtual   (A) (A) (A) (A) (A) (A) (A) (A) (A) (A) (A) (A)
                 (A) (A) (A) (A) (A) (A) (A) (A) (A) (A) (A) (A)
                 (A) (A) (A) (A) (A) (A) (A) (A) (A) (A) (A) (A)
                 (A) (A) (A) (A) (A) (A) (A) (A) (A) (A) (A) (A)
                 (A) (A) (A) (A) (A) (A) (A)
 The electronic state of the initial guess is 2-A.
 Initial guess <Sx>= 0.0000 <Sy>= 0.0000 <Sz>= 0.5000 <S**2>= 0.7500 S= 0.5000
 Requested convergence on RMS density matrix=1.00D-08 within 128 cycles.
 Requested convergence on MAX density matrix=1.00D-06.
 Requested convergence on             energy=1.00D-06.
 No special actions if energy rises.
 Keep R1 and R2 ints in memory in canonical form, NReq=7763602.
 SCF Done:  E(UHF) =  -535.469742476     A.U. after   32 cycles
             Convg  =    0.3548D-08             -V/T =  2.0000
 <Sx>= 0.0000 <Sy>= 0.0000 <Sz>= 0.5000 <S**2>= 0.7634 S= 0.5067
 <L.S>= 0.000000000000E+00
 Annihilation of the first spin contaminant:
 S**2 before annihilation     0.7634,   after     0.7501
 QCSCF skips out because SCF is already converged.
 ExpMin= 2.97D-02 ExpMax= 1.28D+05 ExpMxC= 1.24D+03 IAcc=3 IRadAn=         5 AccDes= 0.00D+00
 HarFok:  IExCor=  205 AccDes= 0.00D+00 IRadAn=         5 IDoV=-2
 ScaDFX=  1.000000  1.000000  1.000000  1.000000
 Range of M.O.s used for correlation:     7    68
 NBasis=    68 NAE=    14 NBE=    13 NFC=     6 NFV=     0
 NROrb=     62 NOA=     8 NOB=     7 NVA=    54 NVB=    55
 Disk-based method using ON**2 memory for  8 occupieds at a time.
 Permanent disk used for amplitudes=      786591 words.
 Estimated scratch disk usage=     6092672 words.
 Actual    scratch disk usage=     6092672 words.
 JobTyp=2 Pass  1:  I=   7 to  14 NPSUse=  1 ParTrn=F ParDer=F DoDerP=T.
 (rs|ai) integrals will be sorted in core.
 Actual    scratch disk usage=     6092672 words.
 JobTyp=3 Pass  1:  I=   7 to  13 NPSUse=  1 ParTrn=F ParDer=F DoDerP=T.
 (rs|ai) integrals will be sorted in core.
 Spin components of T(2) and E(2):
     alpha-alpha T2 =       0.1605903881D-01 E2=     -0.4978394652D-01
     alpha-beta  T2 =       0.8168860531D-01 E2=     -0.2508645452D+00
     beta-beta   T2 =       0.1438007256D-01 E2=     -0.3829513268D-01
 (S**2,0)=  0.76341D+00           (S**2,1)=  0.75378D+00
 E(PUHF)=      -0.53547389585D+03        E(PMP2)=      -0.53581135715D+03
 ANorm=    0.1054574661D+01
 E2 =    -0.3389436244D+00 EUMP2 =    -0.53580868610009D+03
 G2DrvN: will do     5 centers at a time, making    1 passes doing MaxLOS=2.
 Calling FoFCou, ICntrl=  3107 FMM=F I1Cent=   0 AccDes= 0.00D+00.
 FoFDir/FoFCou used for L=0 through L=2.
 End of G2Drv Frequency-dependent properties file   721 does not exist.
 End of G2Drv Frequency-dependent properties file   722 does not exist.
          IDoAtm=1111
          Differentiating once with respect to electric field.
                with respect to dipole field.
          Differentiating once with respect to nuclear coordinates.
          Keep R1 and R2 ints in memory in canonical form, NReq=7729539.
          There are    15 degrees of freedom in the 1st order CPHF.  IDoFFX=5.
     12 vectors produced by pass  0 Test12= 9.81D-15 6.67D-09 XBig12= 1.91D+01 1.83D+00.
 AX will form    12 AO Fock derivatives at one time.
     12 vectors produced by pass  1 Test12= 9.81D-15 6.67D-09 XBig12= 1.65D+00 4.06D-01.
     12 vectors produced by pass  2 Test12= 9.81D-15 6.67D-09 XBig12= 1.70D-01 1.26D-01.
     12 vectors produced by pass  3 Test12= 9.81D-15 6.67D-09 XBig12= 4.68D-03 1.13D-02.
     12 vectors produced by pass  4 Test12= 9.81D-15 6.67D-09 XBig12= 6.55D-05 1.34D-03.
     12 vectors produced by pass  5 Test12= 9.81D-15 6.67D-09 XBig12= 1.06D-06 1.45D-04.
     12 vectors produced by pass  6 Test12= 9.81D-15 6.67D-09 XBig12= 1.84D-08 2.12D-05.
     12 vectors produced by pass  7 Test12= 9.81D-15 6.67D-09 XBig12= 2.92D-10 2.39D-06.
      3 vectors produced by pass  8 Test12= 9.81D-15 6.67D-09 XBig12= 3.48D-12 2.51D-07.
      2 vectors produced by pass  9 Test12= 9.81D-15 6.67D-09 XBig12= 5.94D-14 4.24D-08.
 Inverted reduced A of dimension   101 with in-core refinement.
 End of Minotr Frequency-dependent properties file   721 does not exist.
 End of Minotr Frequency-dependent properties file   722 does not exist.
 MDV=   157286400.
 Form MO integral derivatives with frozen-active canonical formalism.
 Discarding MO integrals.
 Reordered first order wavefunction length =      3194907
 In DefCFB: NBatch=  1 ICI= 14 ICA= 55 LFMax= 28
            Large arrays: LIAPS=    28808064 LIARS=    22508640 words.
 In DefCFB: NBatch=  1 ICI= 14 ICA= 55 LFMax= 28
            Large arrays: LIAPS=    28808064 LIARS=    22508640 words.
 Semi-Direct transformation.
 ModeAB=           2 MOrb=            14 LenV=     157044359
 LASXX=      1856575 LTotXX=     1856575 LenRXX=     1856575
 LTotAB=     2019906 MaxLAS=     2501856 LenRXY=     2501856
 NonZer=     3713150 LenScr=     6497792 LnRSAI=           0
 LnScr1=           0 LExtra=           0 Total=     10856223
 MaxDsk=          -1 SrtSym=           F ITran=            4
 JobTyp=1 Pass  1:  I=   1 to  14.
 (rs|ai) integrals will be sorted in core.
 ModeAB=           2 MOrb=            13 LenV=     157044359
 LASXX=      1747681 LTotXX=     1747681 LenRXX=     2323152
 LTotAB=     1196910 MaxLAS=     2323152 LenRXY=     1196910
 NonZer=     3495362 LenScr=     6288384 LnRSAI=           0
 LnScr1=           0 LExtra=           0 Total=      9808446
 MaxDsk=          -1 SrtSym=           F ITran=            4
 JobTyp=2 Pass  1:  I=   1 to  13.
 (rs|ai) integrals will be sorted in core.
 SymMOI:  orbitals are not symmetric.
 Spin components of T(2) and E(2):
     alpha-alpha T2 =       0.1605903881D-01 E2=     -0.4978394652D-01
     alpha-beta  T2 =       0.8168860531D-01 E2=     -0.2508645452D+00
     beta-beta   T2 =       0.1438007256D-01 E2=     -0.3829513268D-01
 ANorm=    0.1491393789D+01
 E2 =    -0.3389436244D+00 EUMP2 =    -0.53580868610009D+03
 (S**2,0)=  0.76341D+00           (S**2,1)=  0.76530D+00
 E(PUHF)=      -0.53546912593D+03        E(PMP2)=      -0.53580802620D+03
          IDoAtm=1111
          Differentiating once with respect to electric field.
                with respect to dipole field.
          Differentiating once with respect to nuclear coordinates.
          There are     1 degrees of freedom in the 1st order CPHF.  IDoFFX=0.
 LinEq1:  Iter=  0 NonCon=     1 RMS=3.46D-03 Max=4.92D-02
 LinEq1:  Iter=  1 NonCon=     1 RMS=7.50D-04 Max=1.13D-02
 LinEq1:  Iter=  2 NonCon=     1 RMS=2.74D-04 Max=3.43D-03
 LinEq1:  Iter=  3 NonCon=     1 RMS=1.13D-04 Max=1.52D-03
 LinEq1:  Iter=  4 NonCon=     1 RMS=5.14D-05 Max=6.87D-04
 LinEq1:  Iter=  5 NonCon=     1 RMS=2.26D-05 Max=2.54D-04
 LinEq1:  Iter=  6 NonCon=     1 RMS=5.37D-06 Max=6.29D-05
 LinEq1:  Iter=  7 NonCon=     1 RMS=1.66D-06 Max=2.20D-05
 LinEq1:  Iter=  8 NonCon=     1 RMS=6.17D-07 Max=6.16D-06
 LinEq1:  Iter=  9 NonCon=     1 RMS=1.41D-07 Max=1.24D-06
 LinEq1:  Iter= 10 NonCon=     1 RMS=2.78D-08 Max=2.16D-07
 LinEq1:  Iter= 11 NonCon=     1 RMS=6.14D-09 Max=4.60D-08
 LinEq1:  Iter= 12 NonCon=     1 RMS=1.48D-09 Max=1.15D-08
 LinEq1:  Iter= 13 NonCon=     1 RMS=3.90D-10 Max=3.49D-09
 LinEq1:  Iter= 14 NonCon=     1 RMS=1.11D-10 Max=7.83D-10
 LinEq1:  Iter= 15 NonCon=     0 RMS=2.10D-11 Max=1.40D-10
 Linear equations converged to 1.000D-10 1.000D-09 after    15 iterations.
 End of Minotr Frequency-dependent properties file   721 does not exist.
 End of Minotr Frequency-dependent properties file   722 does not exist.
 Symmetrizing basis deriv contribution to polar:
 IMax=3 JMax=2 DiffMx= 0.00D+00
 G2DrvN: will do     5 centers at a time, making    1 passes doing MaxLOS=2.
 Calling FoFCou, ICntrl=  3107 FMM=F I1Cent=   0 AccDes= 0.00D+00.
 FoFDir/FoFCou used for L=0 through L=2.
 End of G2Drv Frequency-dependent properties file   721 does not exist.
 End of G2Drv Frequency-dependent properties file   722 does not exist.
 R2 and R3 integrals will be kept in memory, NReq=     7729012.
 DD1Dir will call FoFMem   1 times, MxPair=       534
 NAB=   182 NAA=    91 NBB=    78.
 Discarding MO integrals.

 **********************************************************************

            Population analysis using the SCF density.

 **********************************************************************

 Orbital symmetries:
 Alpha Orbitals:
       Occupied  (A) (A) (A) (A) (A) (A) (A) (A) (A) (A) (A) (A)
                 (A) (A)
       Virtual   (A) (A) (A) (A) (A) (A) (A) (A) (A) (A) (A) (A)
                 (A) (A) (A) (A) (A) (A) (A) (A) (A) (A) (A) (A)
                 (A) (A) (A) (A) (A) (A) (A) (A) (A) (A) (A) (A)
                 (A) (A) (A) (A) (A) (A) (A) (A) (A) (A) (A) (A)
                 (A) (A) (A) (A) (A) (A)
 Beta  Orbitals:
       Occupied  (A) (A) (A) (A) (A) (A) (A) (A) (A) (A) (A) (A)
                 (A)
       Virtual   (A) (A) (A) (A) (A) (A) (A) (A) (A) (A) (A) (A)
                 (A) (A) (A) (A) (A) (A) (A) (A) (A) (A) (A) (A)
                 (A) (A) (A) (A) (A) (A) (A) (A) (A) (A) (A) (A)
                 (A) (A) (A) (A) (A) (A) (A) (A) (A) (A) (A) (A)
                 (A) (A) (A) (A) (A) (A) (A)
 The electronic state is 2-A.
 Alpha  occ. eigenvalues -- -104.81370 -20.71698 -10.54033  -8.01067  -8.00475
 Alpha  occ. eigenvalues --   -8.00451  -1.47346  -1.08664  -0.78506  -0.74326
 Alpha  occ. eigenvalues --   -0.65982  -0.51204  -0.45109  -0.44946
 Alpha virt. eigenvalues --    0.02698   0.06424   0.12995   0.14028   0.15785
 Alpha virt. eigenvalues --    0.17219   0.18445   0.19651   0.23968   0.26197
 Alpha virt. eigenvalues --    0.29189   0.31679   0.35545   0.36303   0.43482
 Alpha virt. eigenvalues --    0.46317   0.50220   0.55057   0.58601   0.63678
 Alpha virt. eigenvalues --    0.63771   0.66686   0.74025   0.81998   0.89693
 Alpha virt. eigenvalues --    0.96395   0.99006   1.01147   1.05484   1.07451
 Alpha virt. eigenvalues --    1.15933   1.22172   1.38350   1.40451   1.43568
 Alpha virt. eigenvalues --    1.44459   1.45786   1.48052   1.50081   1.54040
 Alpha virt. eigenvalues --    1.82580   1.89671   1.98614   2.02070   2.23177
 Alpha virt. eigenvalues --    2.34463   2.46416   2.70610   2.94077   3.53720
 Alpha virt. eigenvalues --    3.54850   3.60703   3.71032   4.08335
  Beta  occ. eigenvalues -- -104.81168 -20.67688 -10.53822  -8.00416  -8.00334
  Beta  occ. eigenvalues --   -8.00178  -1.32646  -1.06654  -0.73514  -0.64237
  Beta  occ. eigenvalues --   -0.50137  -0.44676  -0.44529
  Beta virt. eigenvalues --    0.00176   0.03247   0.06469   0.13721   0.14250
  Beta virt. eigenvalues --    0.16104   0.17668   0.19943   0.20130   0.24501
  Beta virt. eigenvalues --    0.26501   0.29962   0.31802   0.35886   0.36956
  Beta virt. eigenvalues --    0.45112   0.47951   0.50612   0.55792   0.59678
  Beta virt. eigenvalues --    0.64284   0.65360   0.67020   0.75212   0.82756
  Beta virt. eigenvalues --    0.90761   0.96800   0.99862   1.03161   1.06720
  Beta virt. eigenvalues --    1.10232   1.18712   1.24124   1.39641   1.42539
  Beta virt. eigenvalues --    1.44095   1.45117   1.48647   1.49360   1.54061
  Beta virt. eigenvalues --    1.59307   1.83091   1.89444   1.99592   2.02182
  Beta virt. eigenvalues --    2.24404   2.35626   2.49175   2.71546   2.96230
  Beta virt. eigenvalues --    3.61302   3.63529   3.66172   3.77942   4.11567
          Condensed to atoms (all electrons):
              1          2          3          4
     1  O    8.179124  -0.083985   0.326919  -0.129624
     2  H   -0.083985   0.386825  -0.001951   0.293168
     3  H    0.326919  -0.001951   0.435691   0.005870
     4  Cl  -0.129624   0.293168   0.005870  17.177562
 Mulliken atomic charges:
              1
     1  O   -0.292435
     2  H    0.405942
     3  H    0.233470
     4  Cl  -0.346977
 Sum of Mulliken atomic charges =   0.00000
 Mulliken charges with hydrogens summed into heavy atoms:
              1
     1  O    0.346977
     4  Cl  -0.346977
 Sum of Mulliken charges with hydrogens summed into heavy atoms =   0.00000
          Atomic-Atomic Spin Densities.
              1          2          3          4
     1  O    1.107772  -0.042531  -0.005271  -0.035790
     2  H   -0.042531  -0.050785  -0.007014   0.007080
     3  H   -0.005271  -0.007014  -0.059004  -0.001923
     4  Cl  -0.035790   0.007080  -0.001923   0.172915
 Mulliken atomic spin densities:
              1
     1  O    1.024180
     2  H   -0.093250
     3  H   -0.073211
     4  Cl   0.142282
 Sum of Mulliken atomic spin densities =   1.00000
 APT atomic charges:
              1
     1  O    0.213070
     2  H   -0.452189
     3  H    0.382065
     4  Cl  -0.142947
 Sum of APT charges=   0.00000
 APT Atomic charges with hydrogens summed into heavy atoms:
              1
     1  O    0.142947
     2  H    0.000000
     3  H    0.000000
     4  Cl  -0.142947
 Sum of APT charges=   0.00000
 Electronic spatial extent (au):  <R**2>=            185.2074
 Charge=              0.0000 electrons
 Dipole moment (field-independent basis, Debye):
    X=              2.8691    Y=              1.3015    Z=              0.6356  Tot=              3.2139
 Quadrupole moment (field-independent basis, Debye-Ang):
   XX=            -17.2572   YY=            -18.4090   ZZ=            -20.4562
   XY=              2.7210   XZ=              1.3826   YZ=             -0.1199
 Traceless Quadrupole moment (field-independent basis, Debye-Ang):
   XX=              1.4503   YY=              0.2985   ZZ=             -1.7487
   XY=              2.7210   XZ=              1.3826   YZ=             -0.1199
 Octapole moment (field-independent basis, Debye-Ang**2):
  XXX=             10.2997  YYY=              1.8441  ZZZ=              0.2890  XYY=              5.7065
  XXY=              6.2147  XXZ=              1.6783  XZZ=              2.1449  YZZ=              0.0861
  YYZ=              0.2932  XYZ=              0.2127
 Hexadecapole moment (field-independent basis, Debye-Ang**3):
 XXXX=           -163.0625 YYYY=            -22.3555 ZZZZ=            -22.6311 XXXY=              9.6270
 XXXZ=              6.4367 YYYX=              3.7195 YYYZ=              0.0675 ZZZX=              0.9654
 ZZZY=             -0.1029 XXYY=            -28.9871 XXZZ=            -35.0815 YYZZ=             -7.7522
 XXYZ=              0.1362 YYXZ=              0.6447 ZZXY=              0.3263
 N-N= 4.559833768397D+01 E-N=-2.041777179623D+03  KE= 8.015845606725D+02
  Exact polarizability:  78.837  -0.134  22.040   6.369   0.001  21.783
 Approx polarizability:  27.939  -0.316  20.648   0.408  -0.043  19.010
                          Isotropic Fermi Contact Couplings
        Atom                 a.u.       MegaHertz       Gauss      10(-4) cm-1
     1  O(17)              0.16086     -97.51071     -34.79425     -32.52607
     2  H(1)              -0.04054    -181.19536     -64.65501     -60.44027
     3  H(1)              -0.01228     -54.91159     -19.59382     -18.31653
     4  Cl(35)             0.05931      26.00329       9.27862       8.67376
 --------------------------------------------------------
       Center         ----  Spin Dipole Couplings  ----
                      3XX-RR        3YY-RR        3ZZ-RR
 --------------------------------------------------------
     1   Atom        3.801937     -1.470069     -2.331868
     2   Atom        0.169288     -0.088189     -0.081099
     3   Atom       -0.020222      0.138665     -0.118443
     4   Atom        2.014965     -1.007483     -1.007481
 --------------------------------------------------------
                        XY            XZ            YZ
 --------------------------------------------------------
     1   Atom       -0.832668      0.833573     -0.012630
     2   Atom        0.033658     -0.054486     -0.021229
     3   Atom        0.021511      0.017337      0.032724
     4   Atom       -0.023329     -0.207448      0.011257
 --------------------------------------------------------


 ---------------------------------------------------------------------------------
              Anisotropic Spin Dipole Couplings in Principal Axis System
 ---------------------------------------------------------------------------------

       Atom             a.u.   MegaHertz   Gauss  10(-4) cm-1        Axes

              Baa    -2.4540   177.570    63.362    59.231 -0.1457 -0.1107  0.9831
     1 O(17)  Bbb    -1.5834   114.575    40.883    38.218  0.1318  0.9827  0.1302
              Bcc     4.0374  -292.145  -104.245   -97.449  0.9805 -0.1485  0.1286
 
              Baa    -0.1067   -56.909   -20.307   -18.983  0.0516  0.7114  0.7009
     2 H(1)   Bbb    -0.0791   -42.181   -15.051   -14.070 -0.2431  0.6896 -0.6821
              Bcc     0.1857    99.090    35.358    33.053  0.9686  0.1352 -0.2086
 
              Baa    -0.1246   -66.484   -23.723   -22.177 -0.1406 -0.1108  0.9839
     3 H(1)   Bbb    -0.0215   -11.469    -4.092    -3.826  0.9800 -0.1566  0.1224
              Bcc     0.1461    77.952    27.815    26.002  0.1405  0.9814  0.1306
 
              Baa    -1.0266   -53.728   -19.172   -17.922  0.0571 -0.4544  0.8890
     4 Cl(35) Bbb    -1.0028   -52.482   -18.727   -17.506  0.0380  0.8908  0.4529
              Bcc     2.0293   106.210    37.898    35.428  0.9976 -0.0079 -0.0682
 

 ---------------------------------------------------------------------------------

 Calling FoFJK, ICntrl=    100127 FMM=F ISym2X=0 I1Cent= 0 IOpClX= 1 NMat=1 NMatS=1 NMatT=0.
 ***** Axes restored to original set *****
 -------------------------------------------------------------------
 Center     Atomic                   Forces (Hartrees/Bohr)
 Number     Number              X              Y              Z
 -------------------------------------------------------------------
      1        8           0.008359149    0.005423325   -0.000694591
      2        1          -0.012451425   -0.002202889    0.000982897
      3        1          -0.000162256   -0.002925250   -0.000970329
      4       17           0.004254532   -0.000295186    0.000682022
 -------------------------------------------------------------------
 Cartesian Forces:  Max     0.012451425 RMS     0.004905824

 GradGradGradGradGradGradGradGradGradGradGradGradGradGradGradGradGradGrad
 Berny optimization.
 Internal  Forces:  Max     0.008605772 RMS     0.004315809
 Search for a saddle point.
 Step number   1 out of a maximum of  100
 All quantities printed in internal units (Hartrees-Bohrs-Radians)
 Swaping is turned off.
 Second derivative matrix not updated -- analytic derivatives used.
 The second derivative matrix:
                          R1        R2        R3        A1        A2
           R1          -0.05136
           R2          -0.01072   0.49258
           R3           0.08939   0.00221   0.23395
           A1          -0.00524   0.00466  -0.00126   0.06873
           A2          -0.01472   0.00077   0.06433  -0.00890   0.06789
           D1          -0.00891  -0.00297  -0.00348   0.00796  -0.00232
                          D1
           D1           0.00666
     Eigenvalues ---   -0.08526   0.00597   0.05588   0.07283   0.27616
     Eigenvalues ---    0.49287
 Eigenvectors required to have negative eigenvalues:
                          R1        R3        A2        D1        A1
   1                    0.92347  -0.30178   0.21882   0.08101   0.03688
                          R2
   1                    0.01811
 RFO step:  Lambda0=8.204236642D-04 Lambda=-5.76069909D-04.
 Linear search not attempted -- option 19 set.
 Iteration  1 RMS(Cart)=  0.08450698 RMS(Int)=  0.00747654
 Iteration  2 RMS(Cart)=  0.00539066 RMS(Int)=  0.00003421
 Iteration  3 RMS(Cart)=  0.00003473 RMS(Int)=  0.00000000
 Iteration  4 RMS(Cart)=  0.00000000 RMS(Int)=  0.00000000
 Variable       Old X    -DE/DX   Delta X   Delta X   Delta X     New X
                                 (Linear)    (Quad)   (Total)
    R1        2.47554   0.00861   0.00000  -0.06063  -0.06063   2.41492
    R2        1.85193  -0.00307   0.00000  -0.00858  -0.00858   1.84336
    R3        2.62672  -0.00413   0.00000   0.02891   0.02891   2.65563
    A1        1.81113   0.00051   0.00000   0.01014   0.01014   1.82127
    A2        2.50315  -0.00330   0.00000  -0.09274  -0.09274   2.41041
    D1        1.02573  -0.00037   0.00000  -0.15849  -0.15849   0.86724
         Item               Value     Threshold  Converged?
 Maximum Force            0.008606     0.000450     NO 
 RMS     Force            0.004316     0.000300     NO 
 Maximum Displacement     0.110087     0.001800     NO 
 RMS     Displacement     0.087251     0.001200     NO 
 Predicted change in Energy= 1.177685D-04
 GradGradGradGradGradGradGradGradGradGradGradGradGradGradGradGradGradGrad

                          Input orientation:                          
 ---------------------------------------------------------------------
 Center     Atomic      Atomic             Coordinates (Angstroms)
 Number     Number       Type             X           Y           Z
 ---------------------------------------------------------------------
      1          8           0        1.743663   -0.086362   -0.007734
      2          1           0        0.497187   -0.328149    0.136876
      3          1           0        1.829724    0.865263    0.188555
      4         17           0       -0.729033    0.208203   -0.291580
 ---------------------------------------------------------------------
                    Distance matrix (angstroms):
                    1          2          3          4
     1  O    0.000000
     2  H    1.277918   0.000000
     3  H    0.975462   1.789569   0.000000
     4  Cl   2.506305   1.405299   2.685051   0.000000
 Stoichiometry    ClH2O(2)
 Framework group  C1[X(ClH2O)]
 Deg. of freedom     6
 Full point group                 C1      NOp   1
 Largest Abelian subgroup         C1      NOp   1
 Largest concise Abelian subgroup C1      NOp   1
                         Standard orientation:                         
 ---------------------------------------------------------------------
 Center     Atomic      Atomic             Coordinates (Angstroms)
 Number     Number       Type             X           Y           Z
 ---------------------------------------------------------------------
      1          8           0        1.619803   -0.084775   -0.032193
      2          1           0        0.424408   -0.408793    0.282640
      3          1           0        1.653806    0.879911    0.108345
      4         17           0       -0.884508    0.012181   -0.007850
 ---------------------------------------------------------------------
 Rotational constants (GHZ):    440.3416983      6.9964940      6.9071435
 Standard basis: Aug-CC-pVDZ (5D, 7F)
 There are    68 symmetry adapted basis functions of A   symmetry.
 Integral buffers will be    262144 words long.
 Raffenetti 2 integral format.
 Two-electron integral symmetry is turned on.
    68 basis functions,   146 primitive gaussians,    72 cartesian basis functions
    14 alpha electrons       13 beta electrons
       nuclear repulsion energy        46.4150766984 Hartrees.
 NAtoms=    4 NActive=    4 NUniq=    4 SFac= 7.50D-01 NAtFMM=   80 NAOKFM=F Big=F
 One-electron integrals computed using PRISM.
 NBasis=    68 RedAO= T  NBF=    68
 NBsUse=    68 1.00D-06 NBFU=    68
 Initial guess read from the read-write file.
 B after Tr=     0.000000    0.000000    0.000000
         Rot=    1.000000    0.000000    0.000000    0.000000 Ang=   0.00 deg.
 Initial guess orbital symmetries:
 Alpha Orbitals:
       Occupied  (A) (A) (A) (A) (A) (A) (A) (A) (A) (A) (A) (A)
                 (A) (A)
       Virtual   (A) (A) (A) (A) (A) (A) (A) (A) (A) (A) (A) (A)
                 (A) (A) (A) (A) (A) (A) (A) (A) (A) (A) (A) (A)
                 (A) (A) (A) (A) (A) (A) (A) (A) (A) (A) (A) (A)
                 (A) (A) (A) (A) (A) (A) (A) (A) (A) (A) (A) (A)
                 (A) (A) (A) (A) (A) (A)
 Beta  Orbitals:
       Occupied  (A) (A) (A) (A) (A) (A) (A) (A) (A) (A) (A) (A)
                 (A)
       Virtual   (A) (A) (A) (A) (A) (A) (A) (A) (A) (A) (A) (A)
                 (A) (A) (A) (A) (A) (A) (A) (A) (A) (A) (A) (A)
                 (A) (A) (A) (A) (A) (A) (A) (A) (A) (A) (A) (A)
                 (A) (A) (A) (A) (A) (A) (A) (A) (A) (A) (A) (A)
                 (A) (A) (A) (A) (A) (A) (A)
 Initial guess <Sx>= 0.0000 <Sy>= 0.0000 <Sz>= 0.5000 <S**2>= 0.7632 S= 0.5066
 Harris functional with IExCor=  205 diagonalized for initial guess.
 ExpMin= 2.97D-02 ExpMax= 1.28D+05 ExpMxC= 1.24D+03 IAcc=3 IRadAn=         0 AccDes= 0.00D+00
 HarFok:  IExCor=  205 AccDes= 0.00D+00 IRadAn=         0 IDoV= 1
 ScaDFX=  1.000000  1.000000  1.000000  1.000000
 FoFCou: FMM=F IPFlag=           0 FMFlag=      100000 FMFlg1=           0
         NFxFlg=           0 DoJE=T BraDBF=F KetDBF=T FulRan=T
         Omega=  0.000000  0.000000  1.000000  0.000000  0.000000 ICntrl=     500 IOpCl=  0
         NMat0=    1 NMatS0=    1 NMatT0=    0 NMatD0=    1 NMtDS0=    0 NMtDT0=    0
         I1Cent=           4 NGrid=           0.
 Petite list used in FoFCou.
 Requested convergence on RMS density matrix=1.00D-08 within 128 cycles.
 Requested convergence on MAX density matrix=1.00D-06.
 Requested convergence on             energy=1.00D-06.
 No special actions if energy rises.
 Keep R1 and R2 ints in memory in canonical form, NReq=7763602.
 SCF Done:  E(UHF) =  -535.465921566     A.U. after   20 cycles
             Convg  =    0.4842D-08             -V/T =  2.0000
 <Sx>= 0.0000 <Sy>= 0.0000 <Sz>= 0.5000 <S**2>= 0.7699 S= 0.5099
 <L.S>= 0.000000000000E+00
 Annihilation of the first spin contaminant:
 S**2 before annihilation     0.7699,   after     0.7502
 QCSCF skips out because SCF is already converged.
 ExpMin= 2.97D-02 ExpMax= 1.28D+05 ExpMxC= 1.24D+03 IAcc=3 IRadAn=         5 AccDes= 0.00D+00
 HarFok:  IExCor=  205 AccDes= 0.00D+00 IRadAn=         5 IDoV=-2
 ScaDFX=  1.000000  1.000000  1.000000  1.000000
 Range of M.O.s used for correlation:     7    68
 NBasis=    68 NAE=    14 NBE=    13 NFC=     6 NFV=     0
 NROrb=     62 NOA=     8 NOB=     7 NVA=    54 NVB=    55
 Fully direct method using O(ONN) memory.
 JobTyp=2 Pass  1:  I=   7 to  14 NPSUse=  1 ParTrn=F ParDer=F DoDerP=T.
 JobTyp=3 Pass  1:  I=   7 to  13 NPSUse=  1 ParTrn=F ParDer=F DoDerP=T.
 Spin components of T(2) and E(2):
     alpha-alpha T2 =       0.1610719106D-01 E2=     -0.5000256204D-01
     alpha-beta  T2 =       0.8260646972D-01 E2=     -0.2529534605D+00
     beta-beta   T2 =       0.1505025997D-01 E2=     -0.3960929272D-01
 (S**2,0)=  0.76989D+00           (S**2,1)=  0.75633D+00
 E(PUHF)=      -0.53547117389D+03        E(PMP2)=      -0.53581196009D+03
 ANorm=    0.1055350141D+01
 E2 =    -0.3425653152D+00 EUMP2 =    -0.53580848688100D+03
          IDoAtm=1111
          Differentiating once with respect to electric field.
                with respect to dipole field.
          Differentiating once with respect to nuclear coordinates.
          Keep R1 and R2 ints in memory in canonical form, NReq=7729539.
          There are     1 degrees of freedom in the 1st order CPHF.  IDoFFX=0.
 LinEq1:  Iter=  0 NonCon=     1 RMS=3.71D-03 Max=5.19D-02
 AX will form     1 AO Fock derivatives at one time.
 LinEq1:  Iter=  1 NonCon=     1 RMS=8.07D-04 Max=1.08D-02
 LinEq1:  Iter=  2 NonCon=     1 RMS=2.76D-04 Max=3.28D-03
 LinEq1:  Iter=  3 NonCon=     1 RMS=1.00D-04 Max=1.33D-03
 LinEq1:  Iter=  4 NonCon=     1 RMS=4.46D-05 Max=6.28D-04
 LinEq1:  Iter=  5 NonCon=     1 RMS=2.45D-05 Max=3.78D-04
 LinEq1:  Iter=  6 NonCon=     1 RMS=6.28D-06 Max=6.42D-05
 LinEq1:  Iter=  7 NonCon=     1 RMS=1.85D-06 Max=2.37D-05
 LinEq1:  Iter=  8 NonCon=     1 RMS=7.18D-07 Max=8.83D-06
 LinEq1:  Iter=  9 NonCon=     1 RMS=1.78D-07 Max=1.74D-06
 LinEq1:  Iter= 10 NonCon=     1 RMS=3.30D-08 Max=2.53D-07
 LinEq1:  Iter= 11 NonCon=     1 RMS=7.30D-09 Max=5.86D-08
 LinEq1:  Iter= 12 NonCon=     1 RMS=1.80D-09 Max=1.31D-08
 LinEq1:  Iter= 13 NonCon=     1 RMS=4.28D-10 Max=4.48D-09
 LinEq1:  Iter= 14 NonCon=     1 RMS=1.08D-10 Max=1.23D-09
 LinEq1:  Iter= 15 NonCon=     0 RMS=2.23D-11 Max=1.48D-10
 Linear equations converged to 1.000D-10 1.000D-09 after    15 iterations.
 End of Minotr Frequency-dependent properties file   721 does not exist.
 End of Minotr Frequency-dependent properties file   722 does not exist.
 Calling FoFJK, ICntrl=      2127 FMM=F ISym2X=0 I1Cent= 0 IOpClX= 1 NMat=1 NMatS=1 NMatT=0.
 ***** Axes restored to original set *****
 -------------------------------------------------------------------
 Center     Atomic                   Forces (Hartrees/Bohr)
 Number     Number              X              Y              Z
 -------------------------------------------------------------------
      1        8           0.001065759   -0.000807667   -0.000045852
      2        1           0.001992712    0.000038941    0.000523732
      3        1           0.000140129    0.000257616    0.000271403
      4       17          -0.003198600    0.000511110   -0.000749284
 -------------------------------------------------------------------
 Cartesian Forces:  Max     0.003198600 RMS     0.001198970

 GradGradGradGradGradGradGradGradGradGradGradGradGradGradGradGradGradGrad
 Berny optimization.
 Internal  Forces:  Max     0.003214585 RMS     0.001654467
 Search for a saddle point.
 Step number   2 out of a maximum of  100
 All quantities printed in internal units (Hartrees-Bohrs-Radians)
 Swaping is turned off.
 Update second derivatives using D2CorX and points    1    2
 The second derivative matrix:
                          R1        R2        R3        A1        A2
           R1          -0.04884
           R2          -0.01003   0.49274
           R3           0.09482   0.00308   0.23347
           A1          -0.00514   0.00464  -0.00200   0.06866
           A2          -0.00954   0.00207   0.07306  -0.00887   0.07803
           D1          -0.00592  -0.00182   0.00958   0.00861   0.00513
                          D1
           D1           0.00660
     Eigenvalues ---   -0.08491   0.00514   0.05950   0.07304   0.28488
     Eigenvalues ---    0.49301
 Eigenvectors required to have negative eigenvalues:
                          R1        R3        A2        D1        A1
   1                    0.92167  -0.32218   0.19755   0.07951   0.03309
                          R2
   1                    0.01699
 RFO step:  Lambda0=1.885410257D-06 Lambda=-7.33144199D-05.
 Linear search not attempted -- option 19 set.
 Iteration  1 RMS(Cart)=  0.01402374 RMS(Int)=  0.00016485
 Iteration  2 RMS(Cart)=  0.00015972 RMS(Int)=  0.00000003
 Iteration  3 RMS(Cart)=  0.00000002 RMS(Int)=  0.00000000
 Variable       Old X    -DE/DX   Delta X   Delta X   Delta X     New X
                                 (Linear)    (Quad)   (Total)
    R1        2.41492   0.00105   0.00000  -0.00699  -0.00699   2.40792
    R2        1.84336   0.00032   0.00000   0.00047   0.00047   1.84383
    R3        2.65563   0.00321   0.00000   0.01075   0.01075   2.66638
    A1        1.82127   0.00014   0.00000   0.00034   0.00034   1.82161
    A2        2.41041   0.00217   0.00000   0.01507   0.01507   2.42549
    D1        0.86724   0.00041   0.00000   0.02765   0.02765   0.89489
         Item               Value     Threshold  Converged?
 Maximum Force            0.003215     0.000450     NO 
 RMS     Force            0.001654     0.000300     NO 
 Maximum Displacement     0.019244     0.001800     NO 
 RMS     Displacement     0.014116     0.001200     NO 
 Predicted change in Energy=-3.575611D-05
 GradGradGradGradGradGradGradGradGradGradGradGradGradGradGradGradGradGrad

                          Input orientation:                          
 ---------------------------------------------------------------------
 Center     Atomic      Atomic             Coordinates (Angstroms)
 Number     Number       Type             X           Y           Z
 ---------------------------------------------------------------------
      1          8           0        1.743393   -0.086774   -0.009988
      2          1           0        0.499231   -0.318977    0.137577
      3          1           0        1.838134    0.863027    0.192288
      4         17           0       -0.739217    0.201678   -0.293760
 ---------------------------------------------------------------------
                    Distance matrix (angstroms):
                    1          2          3          4
     1  O    0.000000
     2  H    1.274218   0.000000
     3  H    0.975712   1.786838   0.000000
     4  Cl   2.515369   1.410988   2.704878   0.000000
 Stoichiometry    ClH2O(2)
 Framework group  C1[X(ClH2O)]
 Deg. of freedom     6
 Full point group                 C1      NOp   1
 Largest Abelian subgroup         C1      NOp   1
 Largest concise Abelian subgroup C1      NOp   1
                         Standard orientation:                         
 ---------------------------------------------------------------------
 Center     Atomic      Atomic             Coordinates (Angstroms)
 Number     Number       Type             X           Y           Z
 ---------------------------------------------------------------------
      1          8           0        1.625000   -0.086044   -0.032218
      2          1           0        0.430443   -0.393911    0.286975
      3          1           0        1.671369    0.878825    0.105225
      4         17           0       -0.888342    0.011967   -0.007909
 ---------------------------------------------------------------------
 Rotational constants (GHZ):    444.0300947      6.9416444      6.8549120
 Standard basis: Aug-CC-pVDZ (5D, 7F)
 There are    68 symmetry adapted basis functions of A   symmetry.
 Integral buffers will be    262144 words long.
 Raffenetti 2 integral format.
 Two-electron integral symmetry is turned on.
    68 basis functions,   146 primitive gaussians,    72 cartesian basis functions
    14 alpha electrons       13 beta electrons
       nuclear repulsion energy        46.2701985071 Hartrees.
 NAtoms=    4 NActive=    4 NUniq=    4 SFac= 7.50D-01 NAtFMM=   80 NAOKFM=F Big=F
 One-electron integrals computed using PRISM.
 NBasis=    68 RedAO= T  NBF=    68
 NBsUse=    68 1.00D-06 NBFU=    68
 Initial guess read from the read-write file.
 B after Tr=     0.000000    0.000000    0.000000
         Rot=    1.000000    0.000000    0.000000    0.000000 Ang=   0.00 deg.
 Initial guess orbital symmetries:
 Alpha Orbitals:
       Occupied  (A) (A) (A) (A) (A) (A) (A) (A) (A) (A) (A) (A)
                 (A) (A)
       Virtual   (A) (A) (A) (A) (A) (A) (A) (A) (A) (A) (A) (A)
                 (A) (A) (A) (A) (A) (A) (A) (A) (A) (A) (A) (A)
                 (A) (A) (A) (A) (A) (A) (A) (A) (A) (A) (A) (A)
                 (A) (A) (A) (A) (A) (A) (A) (A) (A) (A) (A) (A)
                 (A) (A) (A) (A) (A) (A)
 Beta  Orbitals:
       Occupied  (A) (A) (A) (A) (A) (A) (A) (A) (A) (A) (A) (A)
                 (A)
       Virtual   (A) (A) (A) (A) (A) (A) (A) (A) (A) (A) (A) (A)
                 (A) (A) (A) (A) (A) (A) (A) (A) (A) (A) (A) (A)
                 (A) (A) (A) (A) (A) (A) (A) (A) (A) (A) (A) (A)
                 (A) (A) (A) (A) (A) (A) (A) (A) (A) (A) (A) (A)
                 (A) (A) (A) (A) (A) (A) (A)
 Initial guess <Sx>= 0.0000 <Sy>= 0.0000 <Sz>= 0.5000 <S**2>= 0.7700 S= 0.5099
 Requested convergence on RMS density matrix=1.00D-08 within 128 cycles.
 Requested convergence on MAX density matrix=1.00D-06.
 Requested convergence on             energy=1.00D-06.
 No special actions if energy rises.
 Keep R1 and R2 ints in memory in canonical form, NReq=7763602.
 SCF Done:  E(UHF) =  -535.465964384     A.U. after   18 cycles
             Convg  =    0.3232D-08             -V/T =  2.0000
 <Sx>= 0.0000 <Sy>= 0.0000 <Sz>= 0.5000 <S**2>= 0.7698 S= 0.5098
 <L.S>= 0.000000000000E+00
 Annihilation of the first spin contaminant:
 S**2 before annihilation     0.7698,   after     0.7502
 QCSCF skips out because SCF is already converged.
 ExpMin= 2.97D-02 ExpMax= 1.28D+05 ExpMxC= 1.24D+03 IAcc=3 IRadAn=         5 AccDes= 0.00D+00
 HarFok:  IExCor=  205 AccDes= 0.00D+00 IRadAn=         5 IDoV=-2
 ScaDFX=  1.000000  1.000000  1.000000  1.000000
 Range of M.O.s used for correlation:     7    68
 NBasis=    68 NAE=    14 NBE=    13 NFC=     6 NFV=     0
 NROrb=     62 NOA=     8 NOB=     7 NVA=    54 NVB=    55
 Fully direct method using O(ONN) memory.
 JobTyp=2 Pass  1:  I=   7 to  14 NPSUse=  1 ParTrn=F ParDer=F DoDerP=T.
 JobTyp=3 Pass  1:  I=   7 to  13 NPSUse=  1 ParTrn=F ParDer=F DoDerP=T.
 Spin components of T(2) and E(2):
     alpha-alpha T2 =       0.1611326735D-01 E2=     -0.4999624076D-01
     alpha-beta  T2 =       0.8267705857D-01 E2=     -0.2529561127D+00
     beta-beta   T2 =       0.1507003537D-01 E2=     -0.3961551399D-01
 (S**2,0)=  0.76977D+00           (S**2,1)=  0.75629D+00
 E(PUHF)=      -0.53547118675D+03        E(PMP2)=      -0.53581198510D+03
 ANorm=    0.1055395832D+01
 E2 =    -0.3425678675D+00 EUMP2 =    -0.53580853225182D+03
          IDoAtm=1111
          Differentiating once with respect to electric field.
                with respect to dipole field.
          Differentiating once with respect to nuclear coordinates.
          Keep R1 and R2 ints in memory in canonical form, NReq=7729539.
          There are     1 degrees of freedom in the 1st order CPHF.  IDoFFX=0.
 LinEq1:  Iter=  0 NonCon=     1 RMS=3.73D-03 Max=5.37D-02
 AX will form     1 AO Fock derivatives at one time.
 LinEq1:  Iter=  1 NonCon=     1 RMS=8.15D-04 Max=1.11D-02
 LinEq1:  Iter=  2 NonCon=     1 RMS=2.82D-04 Max=3.47D-03
 LinEq1:  Iter=  3 NonCon=     1 RMS=1.03D-04 Max=1.34D-03
 LinEq1:  Iter=  4 NonCon=     1 RMS=4.42D-05 Max=6.19D-04
 LinEq1:  Iter=  5 NonCon=     1 RMS=2.44D-05 Max=3.67D-04
 LinEq1:  Iter=  6 NonCon=     1 RMS=6.38D-06 Max=6.60D-05
 LinEq1:  Iter=  7 NonCon=     1 RMS=1.88D-06 Max=2.46D-05
 LinEq1:  Iter=  8 NonCon=     1 RMS=7.32D-07 Max=8.94D-06
 LinEq1:  Iter=  9 NonCon=     1 RMS=1.81D-07 Max=1.75D-06
 LinEq1:  Iter= 10 NonCon=     1 RMS=3.35D-08 Max=2.54D-07
 LinEq1:  Iter= 11 NonCon=     1 RMS=7.37D-09 Max=5.98D-08
 LinEq1:  Iter= 12 NonCon=     1 RMS=1.80D-09 Max=1.34D-08
 LinEq1:  Iter= 13 NonCon=     1 RMS=4.32D-10 Max=4.47D-09
 LinEq1:  Iter= 14 NonCon=     1 RMS=1.10D-10 Max=1.24D-09
 LinEq1:  Iter= 15 NonCon=     0 RMS=2.26D-11 Max=1.52D-10
 Linear equations converged to 1.000D-10 1.000D-09 after    15 iterations.
 End of Minotr Frequency-dependent properties file   721 does not exist.
 End of Minotr Frequency-dependent properties file   722 does not exist.
 Calling FoFJK, ICntrl=      2127 FMM=F ISym2X=0 I1Cent= 0 IOpClX= 1 NMat=1 NMatS=1 NMatT=0.
 ***** Axes restored to original set *****
 -------------------------------------------------------------------
 Center     Atomic                   Forces (Hartrees/Bohr)
 Number     Number              X              Y              Z
 -------------------------------------------------------------------
      1        8          -0.000806759   -0.000256791    0.000126450
      2        1           0.001721009    0.000040880    0.000100750
      3        1          -0.000107745   -0.000057132    0.000008605
      4       17          -0.000806505    0.000273042   -0.000235805
 -------------------------------------------------------------------
 Cartesian Forces:  Max     0.001721009 RMS     0.000612511

 GradGradGradGradGradGradGradGradGradGradGradGradGradGradGradGradGradGrad
 Berny optimization.
 Internal  Forces:  Max     0.000965794 RMS     0.000545321
 Search for a saddle point.
 Step number   3 out of a maximum of  100
 All quantities printed in internal units (Hartrees-Bohrs-Radians)
 Swaping is turned off.
 Update second derivatives using D2CorX and points    1    2    3
 The second derivative matrix:
                          R1        R2        R3        A1        A2
           R1          -0.07237
           R2          -0.01112   0.49271
           R3           0.11843   0.00427   0.21018
           A1          -0.00865   0.00452   0.00173   0.06832
           A2           0.00154   0.00284   0.06311  -0.00665   0.07637
           D1           0.00790  -0.00065  -0.00186   0.01199   0.00596
                          D1
           D1           0.01382
     Eigenvalues ---   -0.11896   0.01147   0.05934   0.07241   0.27174
     Eigenvalues ---    0.49302
 Eigenvectors required to have negative eigenvalues:
                          R1        R3        A2        D1        A1
   1                    0.92401  -0.35467   0.11101  -0.06967   0.05389
                          R2
   1                    0.01829
 RFO step:  Lambda0=1.202512859D-05 Lambda=-2.20818944D-06.
 Linear search not attempted -- option 19 set.
 Iteration  1 RMS(Cart)=  0.00476690 RMS(Int)=  0.00001087
 Iteration  2 RMS(Cart)=  0.00001512 RMS(Int)=  0.00000000
 Iteration  3 RMS(Cart)=  0.00000000 RMS(Int)=  0.00000000
 Variable       Old X    -DE/DX   Delta X   Delta X   Delta X     New X
                                 (Linear)    (Quad)   (Total)
    R1        2.40792  -0.00097   0.00000   0.00891   0.00891   2.41683
    R2        1.84383  -0.00006   0.00000   0.00005   0.00005   1.84388
    R3        2.66638   0.00088   0.00000  -0.00230  -0.00230   2.66408
    A1        1.82161  -0.00019   0.00000   0.00005   0.00005   1.82166
    A2        2.42549   0.00019   0.00000   0.00471   0.00471   2.43020
    D1        0.89489   0.00001   0.00000  -0.00691  -0.00691   0.88798
         Item               Value     Threshold  Converged?
 Maximum Force            0.000966     0.000450     NO 
 RMS     Force            0.000545     0.000300     NO 
 Maximum Displacement     0.005267     0.001800     NO 
 RMS     Displacement     0.004776     0.001200     NO 
 Predicted change in Energy= 4.909077D-06
 GradGradGradGradGradGradGradGradGradGradGradGradGradGradGradGradGradGrad

                          Input orientation:                          
 ---------------------------------------------------------------------
 Center     Atomic      Atomic             Coordinates (Angstroms)
 Number     Number       Type             X           Y           Z
 ---------------------------------------------------------------------
      1          8           0        1.746144   -0.086650   -0.008313
      2          1           0        0.496661   -0.318578    0.135439
      3          1           0        1.840741    0.863596    0.192067
      4         17           0       -0.742004    0.200586   -0.293075
 ---------------------------------------------------------------------
                    Distance matrix (angstroms):
                    1          2          3          4
     1  O    0.000000
     2  H    1.278931   0.000000
     3  H    0.975740   1.790892   0.000000
     4  Cl   2.520808   1.409768   2.710261   0.000000
 Stoichiometry    ClH2O(2)
 Framework group  C1[X(ClH2O)]
 Deg. of freedom     6
 Full point group                 C1      NOp   1
 Largest Abelian subgroup         C1      NOp   1
 Largest concise Abelian subgroup C1      NOp   1
                         Standard orientation:                         
 ---------------------------------------------------------------------
 Center     Atomic      Atomic             Coordinates (Angstroms)
 Number     Number       Type             X           Y           Z
 ---------------------------------------------------------------------
      1          8           0        1.628638   -0.086153   -0.031834
      2          1           0        0.428080   -0.393607    0.284072
      3          1           0        1.675275    0.878949    0.104071
      4         17           0       -0.890145    0.011993   -0.007851
 ---------------------------------------------------------------------
 Rotational constants (GHZ):    444.8181059      6.9122103      6.8259803
 Standard basis: Aug-CC-pVDZ (5D, 7F)
 There are    68 symmetry adapted basis functions of A   symmetry.
 Integral buffers will be    262144 words long.
 Raffenetti 2 integral format.
 Two-electron integral symmetry is turned on.
    68 basis functions,   146 primitive gaussians,    72 cartesian basis functions
    14 alpha electrons       13 beta electrons
       nuclear repulsion energy        46.1943363268 Hartrees.
 NAtoms=    4 NActive=    4 NUniq=    4 SFac= 7.50D-01 NAtFMM=   80 NAOKFM=F Big=F
 One-electron integrals computed using PRISM.
 NBasis=    68 RedAO= T  NBF=    68
 NBsUse=    68 1.00D-06 NBFU=    68
 Initial guess read from the read-write file.
 B after Tr=     0.000000    0.000000    0.000000
         Rot=    1.000000    0.000000    0.000000    0.000000 Ang=   0.00 deg.
 Initial guess orbital symmetries:
 Alpha Orbitals:
       Occupied  (A) (A) (A) (A) (A) (A) (A) (A) (A) (A) (A) (A)
                 (A) (A)
       Virtual   (A) (A) (A) (A) (A) (A) (A) (A) (A) (A) (A) (A)
                 (A) (A) (A) (A) (A) (A) (A) (A) (A) (A) (A) (A)
                 (A) (A) (A) (A) (A) (A) (A) (A) (A) (A) (A) (A)
                 (A) (A) (A) (A) (A) (A) (A) (A) (A) (A) (A) (A)
                 (A) (A) (A) (A) (A) (A)
 Beta  Orbitals:
       Occupied  (A) (A) (A) (A) (A) (A) (A) (A) (A) (A) (A) (A)
                 (A)
       Virtual   (A) (A) (A) (A) (A) (A) (A) (A) (A) (A) (A) (A)
                 (A) (A) (A) (A) (A) (A) (A) (A) (A) (A) (A) (A)
                 (A) (A) (A) (A) (A) (A) (A) (A) (A) (A) (A) (A)
                 (A) (A) (A) (A) (A) (A) (A) (A) (A) (A) (A) (A)
                 (A) (A) (A) (A) (A) (A) (A)
 Initial guess <Sx>= 0.0000 <Sy>= 0.0000 <Sz>= 0.5000 <S**2>= 0.7698 S= 0.5099
 Requested convergence on RMS density matrix=1.00D-08 within 128 cycles.
 Requested convergence on MAX density matrix=1.00D-06.
 Requested convergence on             energy=1.00D-06.
 No special actions if energy rises.
 Keep R1 and R2 ints in memory in canonical form, NReq=7763602.
 SCF Done:  E(UHF) =  -535.466357498     A.U. after   17 cycles
             Convg  =    0.3929D-08             -V/T =  2.0000
 <Sx>= 0.0000 <Sy>= 0.0000 <Sz>= 0.5000 <S**2>= 0.7692 S= 0.5095
 <L.S>= 0.000000000000E+00
 Annihilation of the first spin contaminant:
 S**2 before annihilation     0.7692,   after     0.7502
 QCSCF skips out because SCF is already converged.
 ExpMin= 2.97D-02 ExpMax= 1.28D+05 ExpMxC= 1.24D+03 IAcc=3 IRadAn=         5 AccDes= 0.00D+00
 HarFok:  IExCor=  205 AccDes= 0.00D+00 IRadAn=         5 IDoV=-2
 ScaDFX=  1.000000  1.000000  1.000000  1.000000
 Range of M.O.s used for correlation:     7    68
 NBasis=    68 NAE=    14 NBE=    13 NFC=     6 NFV=     0
 NROrb=     62 NOA=     8 NOB=     7 NVA=    54 NVB=    55
 Fully direct method using O(ONN) memory.
 JobTyp=2 Pass  1:  I=   7 to  14 NPSUse=  1 ParTrn=F ParDer=F DoDerP=T.
 JobTyp=3 Pass  1:  I=   7 to  13 NPSUse=  1 ParTrn=F ParDer=F DoDerP=T.
 Spin components of T(2) and E(2):
     alpha-alpha T2 =       0.1610774426D-01 E2=     -0.4997213608D-01
     alpha-beta  T2 =       0.8258021919D-01 E2=     -0.2527279295D+00
     beta-beta   T2 =       0.1499693652D-01 E2=     -0.3946901657D-01
 (S**2,0)=  0.76919D+00           (S**2,1)=  0.75607D+00
 E(PUHF)=      -0.53547147713D+03        E(PMP2)=      -0.53581190759D+03
 ANorm=    0.1055312702D+01
 E2 =    -0.3421690821D+00 EUMP2 =    -0.53580852657970D+03
          IDoAtm=1111
          Differentiating once with respect to electric field.
                with respect to dipole field.
          Differentiating once with respect to nuclear coordinates.
          Keep R1 and R2 ints in memory in canonical form, NReq=7729539.
          There are     1 degrees of freedom in the 1st order CPHF.  IDoFFX=0.
 LinEq1:  Iter=  0 NonCon=     1 RMS=3.70D-03 Max=5.33D-02
 AX will form     1 AO Fock derivatives at one time.
 LinEq1:  Iter=  1 NonCon=     1 RMS=8.07D-04 Max=1.11D-02
 LinEq1:  Iter=  2 NonCon=     1 RMS=2.80D-04 Max=3.44D-03
 LinEq1:  Iter=  3 NonCon=     1 RMS=1.03D-04 Max=1.36D-03
 LinEq1:  Iter=  4 NonCon=     1 RMS=4.52D-05 Max=6.36D-04
 LinEq1:  Iter=  5 NonCon=     1 RMS=2.45D-05 Max=3.61D-04
 LinEq1:  Iter=  6 NonCon=     1 RMS=6.28D-06 Max=6.47D-05
 LinEq1:  Iter=  7 NonCon=     1 RMS=1.86D-06 Max=2.43D-05
 LinEq1:  Iter=  8 NonCon=     1 RMS=7.22D-07 Max=8.71D-06
 LinEq1:  Iter=  9 NonCon=     1 RMS=1.77D-07 Max=1.68D-06
 LinEq1:  Iter= 10 NonCon=     1 RMS=3.29D-08 Max=2.52D-07
 LinEq1:  Iter= 11 NonCon=     1 RMS=7.21D-09 Max=5.79D-08
 LinEq1:  Iter= 12 NonCon=     1 RMS=1.76D-09 Max=1.29D-08
 LinEq1:  Iter= 13 NonCon=     1 RMS=4.26D-10 Max=4.58D-09
 LinEq1:  Iter= 14 NonCon=     1 RMS=1.10D-10 Max=1.26D-09
 LinEq1:  Iter= 15 NonCon=     0 RMS=2.26D-11 Max=1.50D-10
 Linear equations converged to 1.000D-10 1.000D-09 after    15 iterations.
 End of Minotr Frequency-dependent properties file   721 does not exist.
 End of Minotr Frequency-dependent properties file   722 does not exist.
 Calling FoFJK, ICntrl=      2127 FMM=F ISym2X=0 I1Cent= 0 IOpClX= 1 NMat=1 NMatS=1 NMatT=0.
 ***** Axes restored to original set *****
 -------------------------------------------------------------------
 Center     Atomic                   Forces (Hartrees/Bohr)
 Number     Number              X              Y              Z
 -------------------------------------------------------------------
      1        8          -0.000154596   -0.000021401   -0.000043503
      2        1          -0.000018489    0.000129483   -0.000014744
      3        1          -0.000015947   -0.000024471    0.000025809
      4       17           0.000189033   -0.000083611    0.000032439
 -------------------------------------------------------------------
 Cartesian Forces:  Max     0.000189033 RMS     0.000086058

 GradGradGradGradGradGradGradGradGradGradGradGradGradGradGradGradGradGrad
 Berny optimization.
 Internal  Forces:  Max     0.000206678 RMS     0.000114135
 Search for a saddle point.
 Step number   4 out of a maximum of  100
 All quantities printed in internal units (Hartrees-Bohrs-Radians)
 Swaping is turned off.
 Update second derivatives using D2CorX and points    1    2    3    4
 The second derivative matrix:
                          R1        R2        R3        A1        A2
           R1          -0.05613
           R2          -0.00953   0.49282
           R3           0.13556   0.00531   0.21232
           A1          -0.00609   0.00469   0.00384   0.06857
           A2           0.00733   0.00371   0.07138  -0.00508   0.07605
           D1           0.00208  -0.00126  -0.00475   0.01073   0.00494
                          D1
           D1           0.01382
     Eigenvalues ---   -0.11574   0.01121   0.05638   0.07155   0.29093
     Eigenvalues ---    0.49312
 Eigenvectors required to have negative eigenvalues:
                          R1        R3        A2        A1        D1
   1                    0.90658  -0.40128   0.11649   0.04324  -0.03710
                          R2
   1                    0.01657
 RFO step:  Lambda0=5.806876909D-08 Lambda=-4.52970681D-07.
 Linear search not attempted -- option 19 set.
 Iteration  1 RMS(Cart)=  0.00100911 RMS(Int)=  0.00000133
 Iteration  2 RMS(Cart)=  0.00000138 RMS(Int)=  0.00000000
 Iteration  3 RMS(Cart)=  0.00000000 RMS(Int)=  0.00000000
 Variable       Old X    -DE/DX   Delta X   Delta X   Delta X     New X
                                 (Linear)    (Quad)   (Total)
    R1        2.41683  -0.00017   0.00000   0.00040   0.00040   2.41723
    R2        1.84388  -0.00002   0.00000   0.00000   0.00000   1.84388
    R3        2.66408  -0.00021   0.00000  -0.00123  -0.00123   2.66285
    A1        1.82166  -0.00003   0.00000  -0.00096  -0.00096   1.82070
    A2        2.43020  -0.00004   0.00000   0.00030   0.00030   2.43050
    D1        0.88798   0.00005   0.00000   0.00378   0.00378   0.89175
         Item               Value     Threshold  Converged?
 Maximum Force            0.000207     0.000450     YES
 RMS     Force            0.000114     0.000300     YES
 Maximum Displacement     0.001469     0.001800     YES
 RMS     Displacement     0.001009     0.001200     YES
 Predicted change in Energy=-1.974509D-07
 Optimization completed.
    -- Stationary point found.
                           ----------------------------
                           !   Optimized Parameters   !
                           ! (Angstroms and Degrees)  !
 --------------------------                            --------------------------
 ! Name  Definition              Value          Derivative Info.                !
 --------------------------------------------------------------------------------
 ! R1    R(1,2)                  1.2789         -DE/DX =   -0.0002              !
 ! R2    R(1,3)                  0.9757         -DE/DX =    0.0                 !
 ! R3    R(2,4)                  1.4098         -DE/DX =   -0.0002              !
 ! A1    A(2,1,3)              104.3735         -DE/DX =    0.0                 !
 ! A2    A(1,2,4)              139.24           -DE/DX =    0.0                 !
 ! D1    D(3,1,2,4)             50.8775         -DE/DX =    0.0001              !
 --------------------------------------------------------------------------------
 GradGradGradGradGradGradGradGradGradGradGradGradGradGradGradGradGradGrad

                          Input orientation:                          
 ---------------------------------------------------------------------
 Center     Atomic      Atomic             Coordinates (Angstroms)
 Number     Number       Type             X           Y           Z
 ---------------------------------------------------------------------
      1          8           0        1.746144   -0.086650   -0.008313
      2          1           0        0.496661   -0.318578    0.135439
      3          1           0        1.840741    0.863596    0.192067
      4         17           0       -0.742004    0.200586   -0.293075
 ---------------------------------------------------------------------
                    Distance matrix (angstroms):
                    1          2          3          4
     1  O    0.000000
     2  H    1.278931   0.000000
     3  H    0.975740   1.790892   0.000000
     4  Cl   2.520808   1.409768   2.710261   0.000000
 Stoichiometry    ClH2O(2)
 Framework group  C1[X(ClH2O)]
 Deg. of freedom     6
 Full point group                 C1      NOp   1
 Largest Abelian subgroup         C1      NOp   1
 Largest concise Abelian subgroup C1      NOp   1
                         Standard orientation:                         
 ---------------------------------------------------------------------
 Center     Atomic      Atomic             Coordinates (Angstroms)
 Number     Number       Type             X           Y           Z
 ---------------------------------------------------------------------
      1          8           0        1.628638   -0.086153   -0.031834
      2          1           0        0.428080   -0.393607    0.284072
      3          1           0        1.675275    0.878949    0.104071
      4         17           0       -0.890145    0.011993   -0.007851
 ---------------------------------------------------------------------
 Rotational constants (GHZ):    444.8181059      6.9122103      6.8259803

 **********************************************************************

            Population analysis using the SCF density.

 **********************************************************************

 Orbital symmetries:
 Alpha Orbitals:
       Occupied  (A) (A) (A) (A) (A) (A) (A) (A) (A) (A) (A) (A)
                 (A) (A)
       Virtual   (A) (A) (A) (A) (A) (A) (A) (A) (A) (A) (A) (A)
                 (A) (A) (A) (A) (A) (A) (A) (A) (A) (A) (A) (A)
                 (A) (A) (A) (A) (A) (A) (A) (A) (A) (A) (A) (A)
                 (A) (A) (A) (A) (A) (A) (A) (A) (A) (A) (A) (A)
                 (A) (A) (A) (A) (A) (A)
 Beta  Orbitals:
       Occupied  (A) (A) (A) (A) (A) (A) (A) (A) (A) (A) (A) (A)
                 (A)
       Virtual   (A) (A) (A) (A) (A) (A) (A) (A) (A) (A) (A) (A)
                 (A) (A) (A) (A) (A) (A) (A) (A) (A) (A) (A) (A)
                 (A) (A) (A) (A) (A) (A) (A) (A) (A) (A) (A) (A)
                 (A) (A) (A) (A) (A) (A) (A) (A) (A) (A) (A) (A)
                 (A) (A) (A) (A) (A) (A) (A)
 The electronic state is 2-A.
 Alpha  occ. eigenvalues -- -104.82044 -20.71123 -10.54676  -8.01850  -8.01085
 Alpha  occ. eigenvalues --   -8.01061  -1.47032  -1.09197  -0.78866  -0.74057
 Alpha  occ. eigenvalues --   -0.64793  -0.51204  -0.45631  -0.45420
 Alpha virt. eigenvalues --    0.02892   0.06364   0.12794   0.14029   0.15953
 Alpha virt. eigenvalues --    0.17271   0.18687   0.19758   0.23809   0.26378
 Alpha virt. eigenvalues --    0.28592   0.31740   0.35666   0.37007   0.43789
 Alpha virt. eigenvalues --    0.46301   0.50312   0.55653   0.58793   0.63009
 Alpha virt. eigenvalues --    0.64505   0.65627   0.73087   0.81826   0.89423
 Alpha virt. eigenvalues --    0.95913   0.98213   1.01369   1.05389   1.08178
 Alpha virt. eigenvalues --    1.15793   1.23829   1.38092   1.41595   1.43625
 Alpha virt. eigenvalues --    1.44060   1.46274   1.47687   1.50272   1.54462
 Alpha virt. eigenvalues --    1.80510   1.90274   1.99234   2.03396   2.22770
 Alpha virt. eigenvalues --    2.36868   2.47879   2.70863   2.92481   3.54769
 Alpha virt. eigenvalues --    3.55203   3.61347   3.72300   4.09694
  Beta  occ. eigenvalues -- -104.81753 -20.67230 -10.54373  -8.00949  -8.00892
  Beta  occ. eigenvalues --   -8.00616  -1.32951  -1.06392  -0.73638  -0.63291
  Beta  occ. eigenvalues --   -0.50497  -0.45030  -0.44828
  Beta virt. eigenvalues --   -0.00225   0.03392   0.06425   0.13658   0.14195
  Beta virt. eigenvalues --    0.16178   0.17731   0.19764   0.20239   0.24406
  Beta virt. eigenvalues --    0.26673   0.29479   0.31845   0.35815   0.37605
  Beta virt. eigenvalues --    0.44912   0.48604   0.51025   0.56552   0.59936
  Beta virt. eigenvalues --    0.63719   0.65856   0.66304   0.74353   0.82832
  Beta virt. eigenvalues --    0.90072   0.96261   0.99085   1.03392   1.06875
  Beta virt. eigenvalues --    1.10597   1.18426   1.26005   1.39665   1.42862
  Beta virt. eigenvalues --    1.44072   1.45052   1.48706   1.49755   1.53018
  Beta virt. eigenvalues --    1.61367   1.81141   1.89908   2.00087   2.03343
  Beta virt. eigenvalues --    2.24146   2.37948   2.50397   2.71760   2.94524
  Beta virt. eigenvalues --    3.61658   3.64074   3.66359   3.79013   4.12991
          Condensed to atoms (all electrons):
              1          2          3          4
     1  O    8.170904  -0.065760   0.323641  -0.132104
     2  H   -0.065760   0.376271  -0.003621   0.273713
     3  H    0.323641  -0.003621   0.440409   0.010666
     4  Cl  -0.132104   0.273713   0.010666  17.199345
 Mulliken atomic charges:
              1
     1  O   -0.296681
     2  H    0.419397
     3  H    0.228904
     4  Cl  -0.351620
 Sum of Mulliken atomic charges =   0.00000
 Mulliken charges with hydrogens summed into heavy atoms:
              1
     1  O    0.351620
     4  Cl  -0.351620
 Sum of Mulliken charges with hydrogens summed into heavy atoms =   0.00000
          Atomic-Atomic Spin Densities.
              1          2          3          4
     1  O    1.068870  -0.031601  -0.004271  -0.051652
     2  H   -0.031601  -0.080962  -0.007329   0.005450
     3  H   -0.004271  -0.007329  -0.057451  -0.003456
     4  Cl  -0.051652   0.005450  -0.003456   0.255259
 Mulliken atomic spin densities:
              1
     1  O    0.981346
     2  H   -0.114441
     3  H   -0.072506
     4  Cl   0.205601
 Sum of Mulliken atomic spin densities =   1.00000
 Electronic spatial extent (au):  <R**2>=            180.3903
 Charge=              0.0000 electrons
 Dipole moment (field-independent basis, Debye):
    X=              2.5483    Y=              1.2173    Z=              0.6371  Tot=              2.8950
 Quadrupole moment (field-independent basis, Debye-Ang):
   XX=            -17.6159   YY=            -18.2312   ZZ=            -20.5659
   XY=              2.4792   XZ=              1.2743   YZ=             -0.0679
 Traceless Quadrupole moment (field-independent basis, Debye-Ang):
   XX=              1.1884   YY=              0.5731   ZZ=             -1.7615
   XY=              2.4792   XZ=              1.2743   YZ=             -0.0679
 Octapole moment (field-independent basis, Debye-Ang**2):
  XXX=              8.9070  YYY=              1.8282  ZZZ=              0.2624  XYY=              5.4770
  XXY=              5.8742  XXZ=              1.3985  XZZ=              1.8656  YZZ=              0.0936
  YYZ=              0.3398  XYZ=              0.3365
 Hexadecapole moment (field-independent basis, Debye-Ang**3):
 XXXX=           -158.8701 YYYY=            -22.2222 ZZZZ=            -22.6679 XXXY=              8.2779
 XXXZ=              5.1535 YYYX=              3.4744 YYYZ=              0.1251 ZZZX=              0.8643
 ZZZY=             -0.0670 XXYY=            -28.3476 XXZZ=            -34.3656 YYZZ=             -7.7300
 XXYZ=              0.3585 YYXZ=              0.6630 ZZXY=              0.3038
 N-N= 4.619433632677D+01 E-N=-2.043269005981D+03  KE= 8.015201416514D+02
                          Isotropic Fermi Contact Couplings
        Atom                 a.u.       MegaHertz       Gauss      10(-4) cm-1
     1  O(17)              0.14458     -87.64495     -31.27390     -29.23521
     2  H(1)              -0.04389    -196.20205     -70.00977     -65.44596
     3  H(1)              -0.01107     -49.46637     -17.65083     -16.50020
     4  Cl(35)             0.06054      26.54265       9.47108       8.85367
 --------------------------------------------------------
       Center         ----  Spin Dipole Couplings  ----
                      3XX-RR        3YY-RR        3ZZ-RR
 --------------------------------------------------------
     1   Atom        3.532325     -1.465377     -2.066948
     2   Atom        0.174394     -0.083393     -0.091001
     3   Atom       -0.022533      0.130895     -0.108362
     4   Atom        2.443499     -1.226782     -1.216717
 --------------------------------------------------------
                        XY            XZ            YZ
 --------------------------------------------------------
     1   Atom       -0.456510      0.235028      0.077989
     2   Atom        0.039711     -0.044758     -0.024828
     3   Atom        0.015865      0.006619      0.036804
     4   Atom       -0.056181     -0.196931      0.018927
 --------------------------------------------------------


 ---------------------------------------------------------------------------------
              Anisotropic Spin Dipole Couplings in Principal Axis System
 ---------------------------------------------------------------------------------

       Atom             a.u.   MegaHertz   Gauss  10(-4) cm-1        Axes

              Baa    -2.0927   151.428    54.033    50.511 -0.0543 -0.1620  0.9853
     1 O(17)  Bbb    -1.4901   107.821    38.473    35.965  0.0816  0.9827  0.1661
              Bcc     3.5828  -259.250   -92.507   -86.476  0.9952 -0.0894  0.0402
 
              Baa    -0.1126   -60.087   -21.440   -20.043  0.0372  0.6172  0.7859
     2 H(1)   Bbb    -0.0760   -40.558   -14.472   -13.529 -0.2285  0.7709 -0.5946
              Bcc     0.1886   100.644    35.912    33.571  0.9728  0.1575 -0.1697
 
              Baa    -0.1141   -60.873   -21.721   -20.305 -0.0462 -0.1455  0.9883
     3 H(1)   Bbb    -0.0241   -12.842    -4.583    -4.284  0.9936 -0.1090  0.0305
              Bcc     0.1382    73.715    26.303    24.589  0.1032  0.9833  0.1496
 
              Baa    -1.2434   -65.075   -23.220   -21.707 -0.0267  0.7113 -0.7024
     4 Cl(35) Bbb    -1.2116   -63.412   -22.627   -21.152  0.0490  0.7027  0.7098
              Bcc     2.4549   128.486    45.847    42.858  0.9984 -0.0155 -0.0536
 

 ---------------------------------------------------------------------------------

 1|1|UNPC-LAPTOP-CFEPOVL3|FTS|UMP2-FC|Aug-CC-pVDZ|Cl1H2O1(2)|VALTER CAR
 VALHO|08-Aug-2016|0||# freq=noraman MP2/aug-cc-pvdz scf=(xqc,direct,ma
 xcycle=1000) opt=(ts,calcfc,maxcycle=100000,noeigentest)||Title Card R
 equired||0,2|O,1.7461440133,-0.0866495941,-0.0083134961|H,0.4966607999
 ,-0.3185783413,0.1354389225|H,1.8407410995,0.8635964423,0.1920667581|C
 l,-0.7420038528,0.2005863031,-0.2930749045||Version=IA32W-G09RevA.02|S
 tate=2-A|HF=-535.4663575|MP2=-535.8085266|PUHF=-535.4714771|PMP2-0=-53
 5.8119076|S2=0.769189|S2-1=0.756073|S2A=0.750204|RMSD=3.929e-009|RMSF=
 8.606e-005|Dipole=0.4447519,0.4138931,0.2795977|PG=C01 [X(Cl1H2O1)]||@


 Life may have no meaning.  Or even worse, it may have a
 meaning of which I disapprove.
                                 -- Ashleigh Brilliant
 Job cpu time:  0 days  0 hours  3 minutes 50.0 seconds.
 File lengths (MBytes):  RWF=    439 Int=      0 D2E=      0 Chk=      1 Scr=      1
 Normal termination of Gaussian 09 at Mon Aug 08 16:55:32 2016.
 Link1:  Proceeding to internal job step number  2.
 ----------------------------------------------------------------------
 #N Geom=AllCheck Guess=TCheck SCRF=Check GenChk UMP2(FC)/Aug-CC-pVDZ F
 req
 ----------------------------------------------------------------------
 1/5=1,6=100000,10=4,11=1,18=20,29=7,30=1,38=1,40=1/1,3;
 2/9=110,12=2,40=1/2;
 3/5=16,7=10,11=2,14=-4,16=1,25=1,30=1,70=2,71=2,116=2/1,2,3;
 4/5=101/1;
 5/5=2,7=1000,8=3,13=1,98=1/2,8;
 8/6=3,8=1,10=1,19=11,30=-1/1;
 9/15=3,16=-3/6;
 11/6=1,8=1,15=11,17=12,24=-1,27=1,28=-2,29=300,32=6,42=3/1,2,10;
 10/6=2,21=1/2;
 8/6=4,8=1,10=1,19=11,30=-1/11,4;
 10/5=1,20=4/2;
 11/12=2,14=11,16=1,17=2,28=-2,42=3/2,10,12;
 6/7=2,8=2,9=2,10=2/1;
 7/8=1,10=1,12=2,25=1,44=2/1,2,3,16;
 1/5=1,6=100000,10=4,11=1,18=20,30=1/3;
 99//99;
 -------------------
 Title Card Required
 -------------------
 Redundant internal coordinates taken from checkpoint file:
 OPT_TS.chk
 Charge =  0 Multiplicity = 2
 O,0,1.7461440133,-0.0866495941,-0.0083134961
 H,0,0.4966607999,-0.3185783413,0.1354389225
 H,0,1.8407410995,0.8635964423,0.1920667581
 Cl,0,-0.7420038528,0.2005863031,-0.2930749045
 Recover connectivity data from disk.

 GradGradGradGradGradGradGradGradGradGradGradGradGradGradGradGradGradGrad
 Berny optimization.
 Initialization pass.
                           ----------------------------
                           !    Initial Parameters    !
                           ! (Angstroms and Degrees)  !
 --------------------------                            --------------------------
 ! Name  Definition              Value          Derivative Info.                !
 --------------------------------------------------------------------------------
 ! R1    R(1,2)                  1.2789         calculate D2E/DX2 analytically  !
 ! R2    R(1,3)                  0.9757         calculate D2E/DX2 analytically  !
 ! R3    R(2,4)                  1.4098         calculate D2E/DX2 analytically  !
 ! A1    A(2,1,3)              104.3735         calculate D2E/DX2 analytically  !
 ! A2    A(1,2,4)              139.24           calculate D2E/DX2 analytically  !
 ! D1    D(3,1,2,4)             50.8775         calculate D2E/DX2 analytically  !
 --------------------------------------------------------------------------------
 Trust Radius=3.00D-01 FncErr=1.00D-07 GrdErr=1.00D-07
 Number of steps in this run=   2 maximum allowed number of steps=   2.
 Search for a saddle point of order  1.
 GradGradGradGradGradGradGradGradGradGradGradGradGradGradGradGradGradGrad

                          Input orientation:                          
 ---------------------------------------------------------------------
 Center     Atomic      Atomic             Coordinates (Angstroms)
 Number     Number       Type             X           Y           Z
 ---------------------------------------------------------------------
      1          8           0        1.746144   -0.086650   -0.008313
      2          1           0        0.496661   -0.318578    0.135439
      3          1           0        1.840741    0.863596    0.192067
      4         17           0       -0.742004    0.200586   -0.293075
 ---------------------------------------------------------------------
                    Distance matrix (angstroms):
                    1          2          3          4
     1  O    0.000000
     2  H    1.278931   0.000000
     3  H    0.975740   1.790892   0.000000
     4  Cl   2.520808   1.409768   2.710261   0.000000
 Stoichiometry    ClH2O(2)
 Framework group  C1[X(ClH2O)]
 Deg. of freedom     6
 Full point group                 C1      NOp   1
 Largest Abelian subgroup         C1      NOp   1
 Largest concise Abelian subgroup C1      NOp   1
                         Standard orientation:                         
 ---------------------------------------------------------------------
 Center     Atomic      Atomic             Coordinates (Angstroms)
 Number     Number       Type             X           Y           Z
 ---------------------------------------------------------------------
      1          8           0        1.628638   -0.086153   -0.031834
      2          1           0        0.428080   -0.393607    0.284072
      3          1           0        1.675275    0.878949    0.104071
      4         17           0       -0.890145    0.011993   -0.007851
 ---------------------------------------------------------------------
 Rotational constants (GHZ):    444.8181059      6.9122103      6.8259803
 Standard basis: Aug-CC-pVDZ (5D, 7F)
 There are    68 symmetry adapted basis functions of A   symmetry.
 Integral buffers will be    262144 words long.
 Raffenetti 2 integral format.
 Two-electron integral symmetry is turned on.
    68 basis functions,   146 primitive gaussians,    72 cartesian basis functions
    14 alpha electrons       13 beta electrons
       nuclear repulsion energy        46.1943363268 Hartrees.
 NAtoms=    4 NActive=    4 NUniq=    4 SFac= 7.50D-01 NAtFMM=   80 NAOKFM=F Big=F
 One-electron integrals computed using PRISM.
 NBasis=    68 RedAO= T  NBF=    68
[...]
                 (A) (A) (A) (A) (A) (A) (A) (A) (A) (A) (A) (A)
                 (A) (A) (A) (A) (A) (A) (A) (A) (A) (A) (A) (A)
                 (A) (A) (A) (A) (A) (A)
 Beta  Orbitals:
       Occupied  (A) (A) (A) (A) (A) (A) (A) (A) (A) (A) (A) (A)
                 (A)
       Virtual   (A) (A) (A) (A) (A) (A) (A) (A) (A) (A) (A) (A)
                 (A) (A) (A) (A) (A) (A) (A) (A) (A) (A) (A) (A)
                 (A) (A) (A) (A) (A) (A) (A) (A) (A) (A) (A) (A)
                 (A) (A) (A) (A) (A) (A) (A) (A) (A) (A) (A) (A)
                 (A) (A) (A) (A) (A) (A) (A)
 The electronic state is 2-A.
 Alpha  occ. eigenvalues -- -104.82044 -20.71123 -10.54676  -8.01850  -8.01085
 Alpha  occ. eigenvalues --   -8.01061  -1.47032  -1.09197  -0.78866  -0.74057
 Alpha  occ. eigenvalues --   -0.64793  -0.51204  -0.45631  -0.45420
 Alpha virt. eigenvalues --    0.02892   0.06364   0.12794   0.14029   0.15953
 Alpha virt. eigenvalues --    0.17271   0.18687   0.19758   0.23809   0.26378
 Alpha virt. eigenvalues --    0.28592   0.31740   0.35666   0.37007   0.43789
 Alpha virt. eigenvalues --    0.46301   0.50312   0.55653   0.58793   0.63009
 Alpha virt. eigenvalues --    0.64505   0.65627   0.73087   0.81826   0.89423
 Alpha virt. eigenvalues --    0.95913   0.98213   1.01369   1.05389   1.08178
 Alpha virt. eigenvalues --    1.15793   1.23829   1.38092   1.41595   1.43625
 Alpha virt. eigenvalues --    1.44060   1.46274   1.47687   1.50272   1.54462
 Alpha virt. eigenvalues --    1.80510   1.90274   1.99234   2.03396   2.22770
 Alpha virt. eigenvalues --    2.36868   2.47879   2.70863   2.92481   3.54769
 Alpha virt. eigenvalues --    3.55203   3.61347   3.72300   4.09694
  Beta  occ. eigenvalues -- -104.81753 -20.67230 -10.54373  -8.00949  -8.00892
  Beta  occ. eigenvalues --   -8.00616  -1.32951  -1.06392  -0.73638  -0.63291
  Beta  occ. eigenvalues --   -0.50497  -0.45030  -0.44828
  Beta virt. eigenvalues --   -0.00225   0.03392   0.06425   0.13658   0.14195
  Beta virt. eigenvalues --    0.16178   0.17731   0.19764   0.20239   0.24406
  Beta virt. eigenvalues --    0.26673   0.29479   0.31845   0.35815   0.37605
  Beta virt. eigenvalues --    0.44912   0.48604   0.51025   0.56552   0.59936
  Beta virt. eigenvalues --    0.63719   0.65856   0.66304   0.74353   0.82832
  Beta virt. eigenvalues --    0.90072   0.96261   0.99085   1.03392   1.06875
  Beta virt. eigenvalues --    1.10597   1.18426   1.26005   1.39665   1.42862
  Beta virt. eigenvalues --    1.44072   1.45052   1.48706   1.49755   1.53018
  Beta virt. eigenvalues --    1.61367   1.81141   1.89908   2.00087   2.03343
  Beta virt. eigenvalues --    2.24146   2.37948   2.50397   2.71760   2.94524
  Beta virt. eigenvalues --    3.61658   3.64074   3.66359   3.79013   4.12991
          Condensed to atoms (all electrons):
              1          2          3          4
     1  O    8.170904  -0.065760   0.323641  -0.132104
     2  H   -0.065760   0.376271  -0.003621   0.273713
     3  H    0.323641  -0.003621   0.440409   0.010666
     4  Cl  -0.132104   0.273713   0.010666  17.199345
 Mulliken atomic charges:
              1
     1  O   -0.296681
     2  H    0.419397
     3  H    0.228904
     4  Cl  -0.351620
 Sum of Mulliken atomic charges =   0.00000
 Mulliken charges with hydrogens summed into heavy atoms:
              1
     1  O    0.351620
     4  Cl  -0.351620
 Sum of Mulliken charges with hydrogens summed into heavy atoms =   0.00000
          Atomic-Atomic Spin Densities.
              1          2          3          4
     1  O    1.068870  -0.031601  -0.004271  -0.051652
     2  H   -0.031601  -0.080962  -0.007329   0.005450
     3  H   -0.004271  -0.007329  -0.057451  -0.003456
     4  Cl  -0.051652   0.005450  -0.003456   0.255259
 Mulliken atomic spin densities:
              1
     1  O    0.981346
     2  H   -0.114441
     3  H   -0.072506
     4  Cl   0.205601
 Sum of Mulliken atomic spin densities =   1.00000
 APT atomic charges:
              1
     1  O    0.035230
     2  H   -0.641090
     3  H    0.384620
     4  Cl   0.221239
 Sum of APT charges=   0.00000
 APT Atomic charges with hydrogens summed into heavy atoms:
              1
     1  O   -0.221239
     2  H    0.000000
     3  H    0.000000
     4  Cl   0.221239
 Sum of APT charges=   0.00000
 Electronic spatial extent (au):  <R**2>=            180.3903
 Charge=              0.0000 electrons
 Dipole moment (field-independent basis, Debye):
    X=              2.5483    Y=              1.2173    Z=              0.6371  Tot=              2.8950
 Quadrupole moment (field-independent basis, Debye-Ang):
   XX=            -17.6159   YY=            -18.2312   ZZ=            -20.5659
   XY=              2.4792   XZ=              1.2743   YZ=             -0.0679
 Traceless Quadrupole moment (field-independent basis, Debye-Ang):
   XX=              1.1884   YY=              0.5731   ZZ=             -1.7615
   XY=              2.4792   XZ=              1.2743   YZ=             -0.0679
 Octapole moment (field-independent basis, Debye-Ang**2):
  XXX=              8.9070  YYY=              1.8282  ZZZ=              0.2624  XYY=              5.4770
  XXY=              5.8742  XXZ=              1.3985  XZZ=              1.8656  YZZ=              0.0936
  YYZ=              0.3398  XYZ=              0.3365
 Hexadecapole moment (field-independent basis, Debye-Ang**3):
 XXXX=           -158.8701 YYYY=            -22.2222 ZZZZ=            -22.6679 XXXY=              8.2779
 XXXZ=              5.1535 YYYX=              3.4744 YYYZ=              0.1251 ZZZX=              0.8643
 ZZZY=             -0.0670 XXYY=            -28.3476 XXZZ=            -34.3656 YYZZ=             -7.7300
 XXYZ=              0.3585 YYXZ=              0.6630 ZZXY=              0.3038
 N-N= 4.619433632677D+01 E-N=-2.043269005663D+03  KE= 8.015201415195D+02
  Exact polarizability:  57.133   0.217  21.944   2.445  -0.009  21.347
 Approx polarizability:  29.270  -0.561  20.665   0.430  -0.054  18.934
                          Isotropic Fermi Contact Couplings
        Atom                 a.u.       MegaHertz       Gauss      10(-4) cm-1
     1  O(17)              0.14458     -87.64487     -31.27387     -29.23518
     2  H(1)              -0.04389    -196.20235     -70.00988     -65.44606
     3  H(1)              -0.01107     -49.46638     -17.65083     -16.50021
     4  Cl(35)             0.06054      26.54266       9.47108       8.85368
 --------------------------------------------------------
       Center         ----  Spin Dipole Couplings  ----
                      3XX-RR        3YY-RR        3ZZ-RR
 --------------------------------------------------------
     1   Atom        3.532329     -1.465377     -2.066951
     2   Atom        0.174394     -0.083393     -0.091001
     3   Atom       -0.022533      0.130895     -0.108362
     4   Atom        2.443501     -1.226783     -1.216718
 --------------------------------------------------------
                        XY            XZ            YZ
 --------------------------------------------------------
     1   Atom       -0.456510      0.235024      0.077990
     2   Atom        0.039711     -0.044758     -0.024828
     3   Atom        0.015865      0.006619      0.036804
     4   Atom       -0.056181     -0.196930      0.018927
 --------------------------------------------------------


 ---------------------------------------------------------------------------------
              Anisotropic Spin Dipole Couplings in Principal Axis System
 ---------------------------------------------------------------------------------

       Atom             a.u.   MegaHertz   Gauss  10(-4) cm-1        Axes

              Baa    -2.0927   151.429    54.033    50.511 -0.0543 -0.1620  0.9853
     1 O(17)  Bbb    -1.4901   107.821    38.473    35.965  0.0816  0.9827  0.1661
              Bcc     3.5828  -259.250   -92.507   -86.476  0.9952 -0.0894  0.0402
 
              Baa    -0.1126   -60.087   -21.440   -20.043  0.0372  0.6172  0.7859
     2 H(1)   Bbb    -0.0760   -40.558   -14.472   -13.529 -0.2285  0.7709 -0.5946
              Bcc     0.1886   100.644    35.912    33.571  0.9728  0.1575 -0.1697
 
              Baa    -0.1141   -60.873   -21.721   -20.305 -0.0462 -0.1455  0.9883
     3 H(1)   Bbb    -0.0241   -12.842    -4.582    -4.284  0.9936 -0.1090  0.0305
              Bcc     0.1382    73.715    26.303    24.589  0.1032  0.9833  0.1496
 
              Baa    -1.2434   -65.075   -23.220   -21.707 -0.0267  0.7113 -0.7024
     4 Cl(35) Bbb    -1.2116   -63.412   -22.627   -21.152  0.0490  0.7027  0.7098
              Bcc     2.4550   128.486    45.847    42.858  0.9984 -0.0155 -0.0536
 

 ---------------------------------------------------------------------------------

 Calling FoFJK, ICntrl=    100127 FMM=F ISym2X=0 I1Cent= 0 IOpClX= 1 NMat=1 NMatS=1 NMatT=0.
 Full mass-weighted force constant matrix:
 Low frequencies ----1971.1929   -0.0051   -0.0037    0.0021    9.2375   10.1570
 Low frequencies ---   29.0200  308.0217  522.4298
 ******    1 imaginary frequencies (negative Signs) ****** 
 Diagonal vibrational polarizability:
       82.9329914       0.8110795      20.8355830
 Harmonic frequencies (cm**-1), IR intensities (KM/Mole), Raman scattering
 activities (A**4/AMU), depolarization ratios for plane and unpolarized
 incident light, reduced masses (AMU), force constants (mDyne/A),
 and normal coordinates:
                     1                      2                      3
                     A                      A                      A
 Frequencies -- -1971.1929               308.0006               522.4293
 Red. masses --     1.0899                 1.6572                 1.3536
 Frc consts  --     2.4951                 0.0926                 0.2177
 IR Inten    --  5700.4628               177.5586                14.2592
  Atom  AN      X      Y      Z        X      Y      Z        X      Y      Z
     1   8    -0.07  -0.01   0.02     0.16   0.00   0.05     0.10   0.00  -0.02
     2   1     0.96   0.12  -0.22     0.02  -0.27  -0.86     0.17   0.56   0.21
     3   1    -0.06  -0.03  -0.03    -0.01   0.06  -0.39     0.73  -0.07   0.24
     4  17     0.01   0.00   0.00    -0.08   0.01   0.01    -0.07  -0.01   0.00
                     4                      5                      6
                     A                      A                      A
 Frequencies --   918.6637              1449.9169              3763.6178
 Red. masses --     1.4042                 1.0695                 1.0673
 Frc consts  --     0.6982                 1.3247                 8.9073
 IR Inten    --   400.2953                36.1248                50.6169
  Atom  AN      X      Y      Z        X      Y      Z        X      Y      Z
     1   8    -0.14   0.03   0.03    -0.03  -0.03   0.01     0.00   0.06   0.01
     2   1    -0.20  -0.16  -0.41    -0.27   0.79  -0.47    -0.02   0.00   0.01
     3   1     0.83   0.01  -0.21    -0.26  -0.02   0.07    -0.05  -0.99  -0.14
     4  17     0.05  -0.01   0.00     0.03  -0.01   0.01     0.00   0.00   0.00

 -------------------
 - Thermochemistry -
 -------------------
 Temperature   298.150 Kelvin.  Pressure   1.00000 Atm.
 Atom     1 has atomic number  8 and mass  15.99491
 Atom     2 has atomic number  1 and mass   1.00783
 Atom     3 has atomic number  1 and mass   1.00783
 Atom     4 has atomic number 17 and mass  34.96885
 Molecular mass:    52.97942 amu.
 Principal axes and moments of inertia in atomic units:
                           1         2         3
     Eigenvalues --     4.05726 261.09466 264.39297
           X            0.99982   0.01853   0.00402
           Y           -0.01848   0.99976  -0.01187
           Z           -0.00424   0.01180   0.99992
 This molecule is an asymmetric top.
 Rotational symmetry number  1.
 Rotational temperatures (Kelvin)     21.34788     0.33173     0.32759
 Rotational constants (GHZ):         444.81811     6.91221     6.82598
    1 imaginary frequencies ignored.
 Zero-point vibrational energy      41645.8 (Joules/Mol)
                                    9.95358 (Kcal/Mol)
 Warning -- explicit consideration of   2 degrees of freedom as
           vibrations may cause significant error
 Vibrational temperatures:    443.14   751.66  1321.75  2086.10  5415.00
          (Kelvin)
 
 Zero-point correction=                           0.015862 (Hartree/Particle)
 Thermal correction to Energy=                    0.019369
 Thermal correction to Enthalpy=                  0.020313
 Thermal correction to Gibbs Free Energy=        -0.008949
 Sum of electronic and zero-point Energies=           -535.792665
 Sum of electronic and thermal Energies=              -535.789157
 Sum of electronic and thermal Enthalpies=            -535.788213
 Sum of electronic and thermal Free Energies=         -535.817476
 
                     E (Thermal)             CV                S
                      KCal/Mol        Cal/Mol-Kelvin    Cal/Mol-Kelvin
 Total                   12.154              9.385             61.589
 Electronic               0.000              0.000              1.377
 Translational            0.889              2.981             37.824
 Rotational               0.889              2.981             20.266
 Vibrational             10.377              3.423              2.122
 Vibration     1          0.698              1.658              1.373
 Vibration     2          0.877              1.200              0.604
                       Q            Log10(Q)             Ln(Q)
 Total Bot       0.130758D+05          4.116468          9.478518
 Total V=0       0.258513D+12         11.412482         26.278210
 Vib (Bot)       0.720005D-07         -7.142665        -16.446593
 Vib (Bot)    1  0.614647D+00         -0.211374         -0.486706
 Vib (Bot)    2  0.308279D+00         -0.511056         -1.176750
 Vib (V=0)       0.142347D+01          0.153349          0.353100
 Vib (V=0)    1  0.129233D+01          0.111374          0.256449
 Vib (V=0)    2  0.108740D+01          0.036388          0.083787
 Electronic      0.200000D+01          0.301030          0.693147
 Translational   0.151571D+08          7.180616         16.533979
 Rotational      0.599082D+04          3.777487          8.697984
 ***** Axes restored to original set *****
 -------------------------------------------------------------------
 Center     Atomic                   Forces (Hartrees/Bohr)
 Number     Number              X              Y              Z
 -------------------------------------------------------------------
      1        8          -0.000154625   -0.000021389   -0.000043502
      2        1          -0.000018477    0.000129474   -0.000014746
      3        1          -0.000015946   -0.000024477    0.000025804
      4       17           0.000189048   -0.000083607    0.000032443
 -------------------------------------------------------------------
 Cartesian Forces:  Max     0.000189048 RMS     0.000086063

 GradGradGradGradGradGradGradGradGradGradGradGradGradGradGradGradGradGrad
 Berny optimization.
 Internal  Forces:  Max     0.000206691 RMS     0.000114146
 Search for a saddle point.
 Step number   1 out of a maximum of    2
 All quantities printed in internal units (Hartrees-Bohrs-Radians)
 Swaping is turned off.
 Second derivative matrix not updated -- analytic derivatives used.
 The second derivative matrix:
                          R1        R2        R3        A1        A2
           R1          -0.06032
           R2          -0.00926   0.50774
           R3           0.14068   0.00737   0.20313
           A1          -0.00842   0.00457   0.00222   0.08599
           A2           0.01137   0.00391   0.06977  -0.00456   0.07426
           D1          -0.00430  -0.00156   0.00632   0.00889   0.00926
                          D1
           D1           0.00530
     Eigenvalues ---   -0.12372   0.00292   0.05488   0.08747   0.28646
     Eigenvalues ---    0.50810
 Eigenvectors required to have negative eigenvalues:
                          R1        R3        A2        D1        A1
   1                    0.90523  -0.41057   0.09138   0.04113   0.04054
                          R2
   1                    0.01730
 Angle between quadratic step and forces=  76.09 degrees.
 Linear search not attempted -- option 19 set.
 Iteration  1 RMS(Cart)=  0.00434790 RMS(Int)=  0.00003557
 Iteration  2 RMS(Cart)=  0.00004227 RMS(Int)=  0.00000000
 Iteration  3 RMS(Cart)=  0.00000000 RMS(Int)=  0.00000000
 Variable       Old X    -DE/DX   Delta X   Delta X   Delta X     New X
                                 (Linear)    (Quad)   (Total)
    R1        2.41683  -0.00017   0.00000  -0.00013  -0.00013   2.41669
    R2        1.84388  -0.00002   0.00000   0.00006   0.00006   1.84394
    R3        2.66408  -0.00021   0.00000  -0.00069  -0.00069   2.66338
    A1        1.82166  -0.00003   0.00000  -0.00239  -0.00239   1.81927
    A2        2.43020  -0.00004   0.00000  -0.00225  -0.00225   2.42795
    D1        0.88798   0.00005   0.00000   0.01810   0.01810   0.90608
         Item               Value     Threshold  Converged?
 Maximum Force            0.000207     0.000450     YES
 RMS     Force            0.000114     0.000300     YES
 Maximum Displacement     0.006183     0.001800     NO 
 RMS     Displacement     0.004359     0.001200     NO 
 Predicted change in Energy=-6.187467D-07
 GradGradGradGradGradGradGradGradGradGradGradGradGradGradGradGradGradGrad

 1|1|UNPC-LAPTOP-CFEPOVL3|Freq|UMP2-FC|Aug-CC-pVDZ|Cl1H2O1(2)|VALTER CA
 RVALHO|08-Aug-2016|0||#N Geom=AllCheck Guess=TCheck SCRF=Check GenChk 
 UMP2(FC)/Aug-CC-pVDZ Freq||Title Card Required||0,2|O,1.7461440133,-0.
 0866495941,-0.0083134961|H,0.4966607999,-0.3185783413,0.1354389225|H,1
 .8407410995,0.8635964423,0.1920667581|Cl,-0.7420038528,0.2005863031,-0
 .2930749045||Version=IA32W-G09RevA.02|State=2-A|HF=-535.4663575|MP2=-5
 35.8085266|PUHF=-535.4660664|PMP2-0=-535.8082345|S2=0.769189|S2-1=0.76
 9322|S2A=0.750204|RMSD=6.326e-010|RMSF=8.606e-005|ZeroPoint=0.015862|T
 hermal=0.0193692|Dipole=0.4447511,0.4138932,0.2795975|DipoleDeriv=0.79
 65408,-0.0611949,0.2160234,0.4937777,-0.2677019,0.1223784,-0.4470552,0
 .0870042,-0.4231474,-2.3537978,0.2043495,-0.4737112,-0.2347685,0.19926
 38,-0.0454333,0.1983056,-0.035947,0.2312649,0.6002802,-0.0237561,0.039
 4545,0.090747,0.2130872,-0.0147826,0.0883404,-0.0438828,0.340494,0.956
 9768,-0.1193986,0.2182334,-0.3497562,-0.1446491,-0.0621624,0.1604092,-
 0.0071744,-0.1486115|Polar=55.7774286,-2.5306699,22.1316684,6.7944346,
 -0.4841277,22.514712|PG=C01 [X(Cl1H2O1)]|NImag=1||-0.00567757,0.018422
 38,0.50332036,0.02047324,0.10067054,0.02227384,0.17228667,0.00418737,-
 0.01842456,-0.13106635,-0.01266015,-0.02575948,0.00027594,-0.01667403,
 0.05488670,0.02617699,0.00831062,-0.00419024,0.01883351,-0.02481257,0.
 02097868,-0.03922962,-0.03128394,-0.00639867,0.01053769,-0.01616212,0.
 00070015,0.03054388,-0.05575100,-0.48342093,-0.09733170,0.01387942,-0.
 00089273,-0.00262358,0.04796996,0.48187075,-0.01169653,-0.10411964,-0.
 02141811,0.00794346,0.00443605,0.00012167,0.00899421,0.10019168,0.0222
 9633,-0.12737948,0.00867419,0.00434999,-0.05175801,0.04549630,-0.04571
 066,-0.00185195,-0.00609839,-0.00524114,0.18098944,0.04998878,0.005860
 05,-0.00361478,-0.00139276,-0.02823449,0.01912554,-0.00052391,0.002442
 90,-0.00050808,-0.04807210,0.01993154,-0.03495370,-0.00486152,0.003334
 51,-0.00835241,0.02010059,-0.01691011,-0.00329569,-0.00023639,-0.00099
 990,0.04660181,-0.01500268,0.01457550||0.00015462,0.00002139,0.0000435
 0,0.00001848,-0.00012947,0.00001475,0.00001595,0.00002448,-0.00002580,
 -0.00018905,0.00008361,-0.00003244|||@


 My opinions may have changed, but not the fact that I am right.
                       -- Ashleigh Brilliant
 Job cpu time:  0 days  0 hours  2 minutes 26.0 seconds.
 File lengths (MBytes):  RWF=    439 Int=      0 D2E=      0 Chk=      1 Scr=      1
 Normal termination of Gaussian 09 at Mon Aug 08 16:57:58 2016.
