 Entering Link 1 = C:\G09W\l1.exe PID=     22720.
  
 Copyright (c) 1988,1990,1992,1993,1995,1998,2003,2009, Gaussian, Inc.
                  All Rights Reserved.
  
 This is part of the Gaussian(R) 09 program.  It is based on
 the Gaussian(R) 03 system (copyright 2003, Gaussian, Inc.),
 the Gaussian(R) 98 system (copyright 1998, Gaussian, Inc.),
 the Gaussian(R) 94 system (copyright 1995, Gaussian, Inc.),
 the Gaussian 92(TM) system (copyright 1992, Gaussian, Inc.),
 the Gaussian 90(TM) system (copyright 1990, Gaussian, Inc.),
 the Gaussian 88(TM) system (copyright 1988, Gaussian, Inc.),
 the Gaussian 86(TM) system (copyright 1986, Carnegie Mellon
 University), and the Gaussian 82(TM) system (copyright 1983,
 Carnegie Mellon University). Gaussian is a federally registered
 trademark of Gaussian, Inc.
  
 This software contains proprietary and confidential information,
 including trade secrets, belonging to Gaussian, Inc.
  
 This software is provided under written license and may be
 used, copied, transmitted, or stored only in accord with that
 written license.
  
 The following legend is applicable only to US Government
 contracts under FAR:
  
                    RESTRICTED RIGHTS LEGEND
  
 Use, reproduction and disclosure by the US Government is
 subject to restrictions as set forth in subparagraphs (a)
 and (c) of the Commercial Computer Software - Restricted
 Rights clause in FAR 52.227-19.
  
 Gaussian, Inc.
 340 Quinnipiac St., Bldg. 40, Wallingford CT 06492
  
  
 ---------------------------------------------------------------
 Warning -- This program may not be used in any manner that
 competes with the business of Gaussian, Inc. or will provide
 assistance to any competitor of Gaussian, Inc.  The licensee
 of this program is prohibited from giving any competitor of
 Gaussian, Inc. access to this program.  By using this program,
 the user acknowledges that Gaussian, Inc. is engaged in the
 business of creating and licensing software in the field of
 computational chemistry and represents and warrants to the
 licensee that it is not a competitor of Gaussian, Inc. and that
 it will not use this program in any manner prohibited above.
 ---------------------------------------------------------------
  

 Cite this work as:
 Gaussian 09, Revision A.02,
 M. J. Frisch, G. W. Trucks, H. B. Schlegel, G. E. Scuseria, 
 M. A. Robb, J. R. Cheeseman, G. Scalmani, V. Barone, B. Mennucci, 
 G. A. Petersson, H. Nakatsuji, M. Caricato, X. Li, H. P. Hratchian, 
 A. F. Izmaylov, J. Bloino, G. Zheng, J. L. Sonnenberg, M. Hada, 
 M. Ehara, K. Toyota, R. Fukuda, J. Hasegawa, M. Ishida, T. Nakajima, 
 Y. Honda, O. Kitao, H. Nakai, T. Vreven, J. A. Montgomery, Jr., 
 J. E. Peralta, F. Ogliaro, M. Bearpark, J. J. Heyd, E. Brothers, 
 K. N. Kudin, V. N. Staroverov, R. Kobayashi, J. Normand, 
 K. Raghavachari, A. Rendell, J. C. Burant, S. S. Iyengar, J. Tomasi, 
 M. Cossi, N. Rega, J. M. Millam, M. Klene, J. E. Knox, J. B. Cross, 
 V. Bakken, C. Adamo, J. Jaramillo, R. Gomperts, R. E. Stratmann, 
 O. Yazyev, A. J. Austin, R. Cammi, C. Pomelli, J. W. Ochterski, 
 R. L. Martin, K. Morokuma, V. G. Zakrzewski, G. A. Voth, 
 P. Salvador, J. J. Dannenberg, S. Dapprich, A. D. Daniels, 
 O. Farkas, J. B. Foresman, J. V. Ortiz, J. Cioslowski, 
 and D. J. Fox, Gaussian, Inc., Wallingford CT, 2009.
 
 ******************************************
 Gaussian 09:  IA32W-G09RevA.02 11-Jun-2009
                17-Jan-2019 
 ******************************************
 %mem=100mw
 %chk=H2O.chk
 ----------------------------------------------
 # M062X 6-311++G(d,p) SCRF=SMD opt FREQ volume
 ----------------------------------------------
 1/14=-1,18=20,19=15,26=3,38=1/1,3;
 2/9=110,12=2,17=6,18=5,40=1/2;
 3/5=4,6=6,7=1111,11=2,16=1,25=1,30=1,70=32201,71=1,72=1,74=-55/1,2,3;
 4//1;
 5/5=2,38=5/2;
 6/7=2,8=2,9=2,10=2,28=1,44=1/1,4;
 7//1,2,3,16;
 1/14=-1,18=20,19=15/3(2);
 2/9=110/2;
 99//99;
 2/9=110/2;
 3/5=4,6=6,7=1111,11=2,16=1,25=1,30=1,70=32205,71=1,74=-55/1,2,3;
 4/5=5,16=3/1;
 5/5=2,38=5/2;
 7//1,2,3,16;
 1/14=-1,18=20,19=15/3(-5);
 2/9=110/2;
 6/7=2,8=2,9=2,10=2,19=2,28=1,44=1/1,4;
 99/9=1/99;
 --------------------------------------
 h2o_m062x.inp optimization frequencies
 --------------------------------------
 Symbolic Z-matrix:
 Charge =  0 Multiplicity = 1
 O                     0.        0.        0.11819 
 H                     0.        0.7602   -0.47277 
 H                     0.       -0.7602   -0.47277 
 

 GradGradGradGradGradGradGradGradGradGradGradGradGradGradGradGradGradGrad
 Berny optimization.
 Initialization pass.
                           ----------------------------
                           !    Initial Parameters    !
                           ! (Angstroms and Degrees)  !
 --------------------------                            --------------------------
 ! Name  Definition              Value          Derivative Info.                !
 --------------------------------------------------------------------------------
 ! R1    R(1,2)                  0.9629         estimate D2E/DX2                !
 ! R2    R(1,3)                  0.9629         estimate D2E/DX2                !
 ! A1    A(2,1,3)              104.2787         estimate D2E/DX2                !
 --------------------------------------------------------------------------------
 Trust Radius=3.00D-01 FncErr=1.00D-07 GrdErr=1.00D-06
 Number of steps in this run=  20 maximum allowed number of steps= 100.
 GradGradGradGradGradGradGradGradGradGradGradGradGradGradGradGradGradGrad

                          Input orientation:                          
 ---------------------------------------------------------------------
 Center     Atomic      Atomic             Coordinates (Angstroms)
 Number     Number       Type             X           Y           Z
 ---------------------------------------------------------------------
      1          8           0        0.000000    0.000000    0.118192
      2          1           0        0.000000    0.760196   -0.472766
      3          1           0        0.000000   -0.760196   -0.472766
 ---------------------------------------------------------------------
                    Distance matrix (angstroms):
                    1          2          3
     1  O    0.000000
     2  H    0.962876   0.000000
     3  H    0.962876   1.520392   0.000000
 Stoichiometry    H2O
 Framework group  C2V[C2(O),SGV(H2)]
 Deg. of freedom     2
 Full point group                 C2V     NOp   4
 Largest Abelian subgroup         C2V     NOp   4
 Largest concise Abelian subgroup C2      NOp   2
                         Standard orientation:                         
 ---------------------------------------------------------------------
 Center     Atomic      Atomic             Coordinates (Angstroms)
 Number     Number       Type             X           Y           Z
 ---------------------------------------------------------------------
      1          8           0        0.000000    0.000000    0.118192
      2          1           0        0.000000    0.760196   -0.472766
      3          1           0        0.000000   -0.760196   -0.472766
 ---------------------------------------------------------------------
 Rotational constants (GHZ):    808.4147487    433.8612838    282.3364949
 Standard basis: 6-311++G(d,p) (5D, 7F)
 There are    17 symmetry adapted basis functions of A1  symmetry.
 There are     2 symmetry adapted basis functions of A2  symmetry.
 There are     6 symmetry adapted basis functions of B1  symmetry.
 There are    11 symmetry adapted basis functions of B2  symmetry.
 Integral buffers will be    262144 words long.
 Raffenetti 2 integral format.
 Two-electron integral symmetry is turned on.
    36 basis functions,    54 primitive gaussians,    37 cartesian basis functions
     5 alpha electrons        5 beta electrons
       nuclear repulsion energy         9.1413342406 Hartrees.
 NAtoms=    3 NActive=    3 NUniq=    2 SFac= 1.69D+00 NAtFMM=   80 NAOKFM=F Big=F
 ------------------------------------------------------------------------------
 Polarizable Continuum Model (PCM)
 =================================
 Model                : PCM.
 Atomic radii         : SMD-Coulomb.
 Polarization charges : Total charges.
 Charge compensation  : None.
 Solution method      : Matrix inversion.
 Cavity type          : VdW (van der Waals Surface) (Alpha=1.000).
 Cavity algorithm     : GePol (No added spheres)
                        Default sphere list used, NSphG=    3.
                        Lebedev-Laikov grids with approx.  5.0 points / Ang**2.
                        Smoothing algorithm: Karplus/York (Gamma=1.0000).
                        Polarization charges: spherical gaussians, with
                                              point-specific exponents (IZeta= 3).
                        Self-potential: point-specific (ISelfS= 7).
                        Self-field    : sphere-specific E.n sum rule (ISelfD= 2).
 1st derivatives      : Analytical E(r).r(x)/FMM algorithm (CHGder, D1EAlg=3).
                        Cavity 1st derivative terms included.
 Solvent              : Water, Eps=  78.355300 Eps(inf)=   1.777849
 ------------------------------------------------------------------------------
 Spheres list:
 ISph  on   Nord    Re0     Alpha      Xe            Ye            Ze
    1   O      1    1.520   1.000      0.000000      0.000000      0.118192
    2   H      2    1.200   1.000      0.000000      0.760196     -0.472766
    3   H      3    1.200   1.000      0.000000     -0.760196     -0.472766
 ------------------------------------------------------------------------------
 ------------------------------------------------------------------------------
 Atomic radii for non-electrostatic terms: SMD-CDS.
 ------------------------------------------------------------------------------
 Nuclear repulsion after PCM non-electrostatic terms =        9.1436491522 Hartrees.
 One-electron integrals computed using PRISM.
 NBasis=    36 RedAO= T  NBF=    17     2     6    11
 NBsUse=    36 1.00D-06 NBFU=    17     2     6    11
 Harris functional with IExCor= 1009 diagonalized for initial guess.
 ExpMin= 3.60D-02 ExpMax= 8.59D+03 ExpMxC= 1.30D+03 IAcc=3 IRadAn=         0 AccDes= 0.00D+00
 HarFok:  IExCor= 1009 AccDes= 0.00D+00 IRadAn=         0 IDoV= 1
 ScaDFX=  1.000000  1.000000  1.000000  1.000000
 FoFCou: FMM=F IPFlag=           0 FMFlag=      100000 FMFlg1=           0
         NFxFlg=           0 DoJE=T BraDBF=F KetDBF=T FulRan=T
         Omega=  0.000000  0.000000  1.000000  0.000000  0.000000 ICntrl=     500 IOpCl=  0
         NMat0=    1 NMatS0=    1 NMatT0=    0 NMatD0=    1 NMtDS0=    0 NMtDT0=    0
         I1Cent=           4 NGrid=           0.
 Petite list used in FoFCou.
 Initial guess orbital symmetries:
       Occupied  (A1) (A1) (B2) (A1) (B1)
       Virtual   (A1) (B2) (A1) (B2) (B1) (A1) (B2) (A1) (B2) (A1)
                 (A1) (B1) (B2) (A1) (A2) (A1) (B1) (B2) (B2) (A1)
                 (A1) (B2) (B1) (A2) (A1) (A1) (B2) (B1) (A1) (B2)
                 (A1)
 The electronic state of the initial guess is 1-A1.
 Requested convergence on RMS density matrix=1.00D-08 within 128 cycles.
 Requested convergence on MAX density matrix=1.00D-06.
 Requested convergence on             energy=1.00D-06.
 No special actions if energy rises.
 Keep R1 ints in memory in canonical form, NReq=3215626.
 Error on total polarization charges =  0.02712
 SCF Done:  E(RM062X) =  -76.4347427322     A.U. after    8 cycles
             Convg  =    0.9684D-08             -V/T =  2.0032
 SMD-CDS (non-electrostatic) energy             (kcal/mol) =       1.45
 (included in total energy above)

 **********************************************************************

            Population analysis using the SCF density.

 **********************************************************************

 Orbital symmetries:
       Occupied  (A1) (A1) (B2) (A1) (B1)
       Virtual   (A1) (B2) (A1) (B1) (A1) (B2) (A1) (B2) (B2) (A1)
                 (A1) (B1) (B2) (A1) (A2) (A1) (B1) (B2) (B2) (A1)
                 (A1) (B2) (B1) (A2) (A1) (A1) (B2) (B1) (A1) (B2)
                 (A1)
 The electronic state is 1-A1.
 Alpha  occ. eigenvalues --  -19.62237  -1.13212  -0.60364  -0.47996  -0.40454
 Alpha virt. eigenvalues --    0.00697   0.04576   0.16576   0.17524   0.19017
 Alpha virt. eigenvalues --    0.19408   0.25117   0.25448   0.55455   0.61015
 Alpha virt. eigenvalues --    1.01500   1.05397   1.05775   1.28169   1.32727
 Alpha virt. eigenvalues --    1.40752   1.51909   1.73197   2.06102   2.20105
 Alpha virt. eigenvalues --    2.45078   2.62118   3.16569   3.20948   3.37666
 Alpha virt. eigenvalues --    3.73078   3.94514   5.05476   5.42637   5.71808
 Alpha virt. eigenvalues --   49.98053
          Condensed to atoms (all electrons):
              1          2          3
     1  O    8.004130   0.323597   0.323597
     2  H    0.323597   0.367791  -0.017051
     3  H    0.323597  -0.017051   0.367791
 Mulliken atomic charges:
              1
     1  O   -0.651324
     2  H    0.325662
     3  H    0.325662
 Sum of Mulliken atomic charges =   0.00000
 Mulliken charges with hydrogens summed into heavy atoms:
              1
     1  O    0.000000
 Sum of Mulliken charges with hydrogens summed into heavy atoms =   0.00000
 Electronic spatial extent (au):  <R**2>=             19.7922
 Charge=              0.0000 electrons
 Dipole moment (field-independent basis, Debye):
    X=              0.0000    Y=              0.0000    Z=             -2.6508  Tot=              2.6508
 Quadrupole moment (field-independent basis, Debye-Ang):
   XX=             -7.7903   YY=             -4.1987   ZZ=             -6.3967
   XY=              0.0000   XZ=              0.0000   YZ=              0.0000
 Traceless Quadrupole moment (field-independent basis, Debye-Ang):
   XX=             -1.6617   YY=              1.9299   ZZ=             -0.2681
   XY=              0.0000   XZ=              0.0000   YZ=              0.0000
 Octapole moment (field-independent basis, Debye-Ang**2):
  XXX=              0.0000  YYY=              0.0000  ZZZ=             -2.0805  XYY=              0.0000
  XXY=              0.0000  XXZ=             -0.5949  XZZ=              0.0000  YZZ=              0.0000
  YYZ=             -1.7170  XYZ=              0.0000
 Hexadecapole moment (field-independent basis, Debye-Ang**3):
 XXXX=             -7.3816 YYYY=             -5.9245 ZZZZ=             -7.7128 XXXY=              0.0000
 XXXZ=              0.0000 YYYX=              0.0000 YYYZ=              0.0000 ZZZX=              0.0000
 ZZZY=              0.0000 XXYY=             -2.5396 XXZZ=             -2.5783 YYZZ=             -1.8844
 XXYZ=              0.0000 YYXZ=              0.0000 ZZXY=              0.0000
 N-N= 9.143649152217D+00 E-N=-1.991831953226D+02  KE= 7.618953699507D+01
 Symmetry A1   KE= 6.803722644431D+01
 Symmetry A2   KE= 5.617814052099D-35
 Symmetry B1   KE= 4.456160404531D+00
 Symmetry B2   KE= 3.696150146234D+00
 Evaluate density.
 Using the total density.
 Monte-Carlo method of calculating molar volume:
 based on  0.001 e/bohr**3 density envelope.
 Number of points per bohr**3 =   20 CutOff= 1.00D-04
 Using the SCF density.
 There are       198 points.  Will hold       198 in memory.
 LenV=   104848113 MDV=   104857600.
 Box volume =  982.544 fraction occupied=0.202
 Integrated density= 1.0451353781160510D+01 error= 4.5135378116050973D-01
 Molar volume =  198.494 bohr**3/mol ( 17.713 cm**3/mol)
 Recommended a0 for SCRF calculation =  2.61 angstrom (  4.93 bohr)
 D1PCM: PCM CHGder 1st derivatives, ID1Alg=3 FixD1E=F DoIter=F DoCFld=F I1PDM=0.
 Calling FoFJK, ICntrl=      2127 FMM=F ISym2X=1 I1Cent= 0 IOpClX= 0 NMat=1 NMatS=1 NMatT=0.
 ***** Axes restored to original set *****
 -------------------------------------------------------------------
 Center     Atomic                   Forces (Hartrees/Bohr)
 Number     Number              X              Y              Z
 -------------------------------------------------------------------
      1        8           0.000000000    0.000000000   -0.000008874
      2        1           0.000000000    0.000017662    0.000004437
      3        1           0.000000000   -0.000017662    0.000004437
 -------------------------------------------------------------------
 Cartesian Forces:  Max     0.000017662 RMS     0.000009080

 GradGradGradGradGradGradGradGradGradGradGradGradGradGradGradGradGradGrad
 Berny optimization.
 Internal  Forces:  Max     0.000026098 RMS     0.000017634
 Search for a local minimum.
 Step number   1 out of a maximum of   20
 All quantities printed in internal units (Hartrees-Bohrs-Radians)
 Mixed Optimization -- En-DIIS/RFO-DIIS
 Second derivative matrix not updated -- first step.
 The second derivative matrix:
                          R1        R2        A1
           R1           0.54859
           R2           0.00000   0.54859
           A1           0.00000   0.00000   0.16000
     Eigenvalues ---    0.16000   0.54859   0.54859
 RFO step:  Lambda= 0.00000000D+00 EMin= 1.60000000D-01
 Linear search not attempted -- first point.
 Iteration  1 RMS(Cart)=  0.00010048 RMS(Int)=  0.00000001
 Iteration  2 RMS(Cart)=  0.00000000 RMS(Int)=  0.00000000
 ClnCor:  largest displacement from symmetrization is 2.48D-16 for atom     3.
 Variable       Old X    -DE/DX   Delta X   Delta X   Delta X     New X
                                 (Linear)    (Quad)   (Total)
    R1        1.81957   0.00001   0.00000   0.00002   0.00002   1.81959
    R2        1.81957   0.00001   0.00000   0.00002   0.00002   1.81959
    A1        1.82001   0.00003   0.00000   0.00016   0.00016   1.82017
         Item               Value     Threshold  Converged?
 Maximum Force            0.000026     0.000450     YES
 RMS     Force            0.000018     0.000300     YES
 Maximum Displacement     0.000107     0.001800     YES
 RMS     Displacement     0.000100     0.001200     YES
 Predicted change in Energy=-2.357905D-09
 Optimization completed.
    -- Stationary point found.
                           ----------------------------
                           !   Optimized Parameters   !
                           ! (Angstroms and Degrees)  !
 --------------------------                            --------------------------
 ! Name  Definition              Value          Derivative Info.                !
 --------------------------------------------------------------------------------
 ! R1    R(1,2)                  0.9629         -DE/DX =    0.0                 !
 ! R2    R(1,3)                  0.9629         -DE/DX =    0.0                 !
 ! A1    A(2,1,3)              104.2787         -DE/DX =    0.0                 !
 --------------------------------------------------------------------------------
 GradGradGradGradGradGradGradGradGradGradGradGradGradGradGradGradGradGrad

                          Input orientation:                          
 ---------------------------------------------------------------------
 Center     Atomic      Atomic             Coordinates (Angstroms)
 Number     Number       Type             X           Y           Z
 ---------------------------------------------------------------------
      1          8           0        0.000000    0.000000    0.118192
      2          1           0        0.000000    0.760196   -0.472766
      3          1           0        0.000000   -0.760196   -0.472766
 ---------------------------------------------------------------------
                    Distance matrix (angstroms):
                    1          2          3
     1  O    0.000000
     2  H    0.962876   0.000000
     3  H    0.962876   1.520392   0.000000
 Stoichiometry    H2O
 Framework group  C2V[C2(O),SGV(H2)]
 Deg. of freedom     2
 Full point group                 C2V     NOp   4
 Largest Abelian subgroup         C2V     NOp   4
 Largest concise Abelian subgroup C2      NOp   2
                         Standard orientation:                         
 ---------------------------------------------------------------------
 Center     Atomic      Atomic             Coordinates (Angstroms)
 Number     Number       Type             X           Y           Z
 ---------------------------------------------------------------------
      1          8           0        0.000000    0.000000    0.118192
      2          1           0        0.000000    0.760196   -0.472766
      3          1           0        0.000000   -0.760196   -0.472766
 ---------------------------------------------------------------------
 Rotational constants (GHZ):    808.4147487    433.8612838    282.3364949
 1|1|UNPC-DESKTOP-5V797MC|FOpt|RM062X|6-311++G(d,p)|H2O1|FLAVIO|17-Jan-
 2019|0||# M062X 6-311++G(d,p) SCRF=SMD opt FREQ volume||h2o_m062x.inp 
 optimization frequencies||0,1|O,0.,0.,0.118192|H,0.,0.760196,-0.472766
 |H,0.,-0.760196,-0.472766||Version=IA32W-G09RevA.02|State=1-A1|HF=-76.
 4347427|RMSD=9.684e-009|RMSF=9.080e-006|Dipole=0.,0.,-1.0428964|Quadru
 pole=-1.2354682,1.4348233,-0.1993551,0.,0.,0.|PG=C02V [C2(O1),SGV(H2)]
 ||@


      THE ONE-EYED VIEW OF OUR UNIVERSE SAYS YOU MUST NOT LOOK
      FAR AFIELD FOR PROBLEMS.  SUCH PROBLEMS MAY NEVER ARRIVE. 
      INSTEAD, TEND TO THE WOLF WITHIN YOUR FENCES.
      THE PACKS RANGING OUTSIDE MAY NOT EVEN EXIST.

                              -- THE AZHAR BOOK SHAMRA I:4
                                 CHILDREN OF DUNE, BY FRANK HERBERT
 Job cpu time:  0 days  0 hours  0 minutes  7.0 seconds.
 File lengths (MBytes):  RWF=      5 Int=      0 D2E=      0 Chk=      1 Scr=      1
 Normal termination of Gaussian 09 at Thu Jan 17 19:50:40 2019.
 Link1:  Proceeding to internal job step number  2.
 ----------------------------------------------------------------------
 #N Geom=AllCheck Guess=TCheck SCRF=Check GenChk RM062X/6-311++G(d,p) F
 req
 ----------------------------------------------------------------------
 1/10=4,29=7,30=1,38=1,40=1/1,3;
 2/12=2,40=1/2;
 3/5=4,6=6,7=1111,11=2,14=-4,16=1,25=1,30=1,70=2,71=2,74=-55,116=1/1,2,3;
 4/5=101/1;
 5/5=2,98=1/2;
 8/6=4,10=90,11=11/1;
 11/6=1,8=1,9=11,15=111,16=1/1,2,10;
 10/6=1/2;
 6/7=2,8=2,9=2,10=2,18=1,28=1/1;
 7/8=1,10=1,25=1/1,2,3,16;
 1/10=4,30=1/3;
 99//99;
 --------------------------------------
 h2o_m062x.inp optimization frequencies
 --------------------------------------
 Redundant internal coordinates taken from checkpoint file:
 H2O.chk
 Charge =  0 Multiplicity = 1
 O,0,0.,0.,0.118192
 H,0,0.,0.760196,-0.472766
 H,0,0.,-0.760196,-0.472766
 Recover connectivity data from disk.

 GradGradGradGradGradGradGradGradGradGradGradGradGradGradGradGradGradGrad
 Berny optimization.
 Initialization pass.
                           ----------------------------
                           !    Initial Parameters    !
                           ! (Angstroms and Degrees)  !
 --------------------------                            --------------------------
 ! Name  Definition              Value          Derivative Info.                !
 --------------------------------------------------------------------------------
 ! R1    R(1,2)                  0.9629         calculate D2E/DX2 analytically  !
 ! R2    R(1,3)                  0.9629         calculate D2E/DX2 analytically  !
 ! A1    A(2,1,3)              104.2787         calculate D2E/DX2 analytically  !
 --------------------------------------------------------------------------------
 Trust Radius=3.00D-01 FncErr=1.00D-07 GrdErr=1.00D-07
 Number of steps in this run=   2 maximum allowed number of steps=   2.
 GradGradGradGradGradGradGradGradGradGradGradGradGradGradGradGradGradGrad

                          Input orientation:                          
 ---------------------------------------------------------------------
 Center     Atomic      Atomic             Coordinates (Angstroms)
 Number     Number       Type             X           Y           Z
 ---------------------------------------------------------------------
      1          8           0        0.000000    0.000000    0.118192
      2          1           0        0.000000    0.760196   -0.472766
      3          1           0        0.000000   -0.760196   -0.472766
 ---------------------------------------------------------------------
                    Distance matrix (angstroms):
                    1          2          3
     1  O    0.000000
     2  H    0.962876   0.000000
     3  H    0.962876   1.520392   0.000000
 Stoichiometry    H2O
 Framework group  C2V[C2(O),SGV(H2)]
 Deg. of freedom     2
 Full point group                 C2V     NOp   4
 Largest Abelian subgroup         C2V     NOp   4
 Largest concise Abelian subgroup C2      NOp   2
                         Standard orientation:                         
 ---------------------------------------------------------------------
 Center     Atomic      Atomic             Coordinates (Angstroms)
 Number     Number       Type             X           Y           Z
 ---------------------------------------------------------------------
      1          8           0        0.000000    0.000000    0.118192
      2          1           0        0.000000    0.760196   -0.472766
      3          1           0        0.000000   -0.760196   -0.472766
 ---------------------------------------------------------------------
 Rotational constants (GHZ):    808.4147487    433.8612838    282.3364949
 Standard basis: 6-311++G(d,p) (5D, 7F)
 There are    17 symmetry adapted basis functions of A1  symmetry.
 There are     2 symmetry adapted basis functions of A2  symmetry.
 There are     6 symmetry adapted basis functions of B1  symmetry.
 There are    11 symmetry adapted basis functions of B2  symmetry.
 Integral buffers will be    262144 words long.
 Raffenetti 2 integral format.
 Two-electron integral symmetry is turned on.
    36 basis functions,    54 primitive gaussians,    37 cartesian basis functions
     5 alpha electrons        5 beta electrons
       nuclear repulsion energy         9.1413342406 Hartrees.
 NAtoms=    3 NActive=    3 NUniq=    2 SFac= 1.69D+00 NAtFMM=   80 NAOKFM=F Big=F
 ------------------------------------------------------------------------------
 Polarizable Continuum Model (PCM)
 =================================
 Model                : PCM.
 Atomic radii         : SMD-Coulomb.
 Polarization charges : Total charges.
 Charge compensation  : None.
 Solution method      : Matrix inversion.
 Cavity type          : VdW (van der Waals Surface) (Alpha=1.000).
 Cavity algorithm     : GePol (No added spheres)
                        Default sphere list used, NSphG=    3.
                        Lebedev-Laikov grids with approx.  5.0 points / Ang**2.
                        Smoothing algorithm: Karplus/York (Gamma=1.0000).
                        Polarization charges: spherical gaussians, with
                                              point-specific exponents (IZeta= 3).
                        Self-potential: point-specific (ISelfS= 7).
                        Self-field    : sphere-specific E.n sum rule (ISelfD= 2).
 1st derivatives      : Analytical E(r).r(x)/FMM algorithm (CHGder, D1EAlg=3).
                        Cavity 1st derivative terms included.
 2nd derivatives      : Analytical E(r).r(xy)/FMM algorithm (CHGder, D2EAlg=3).
                        Cavity 2nd derivative terms included.
 Solvent              : Water, Eps=  78.355300 Eps(inf)=   1.777849
 ------------------------------------------------------------------------------
 Spheres list:
 ISph  on   Nord    Re0     Alpha      Xe            Ye            Ze
    1   O      1    1.520   1.000      0.000000      0.000000      0.118192
    2   H      2    1.200   1.000      0.000000      0.760196     -0.472766
    3   H      3    1.200   1.000      0.000000     -0.760196     -0.472766
 ------------------------------------------------------------------------------
 ------------------------------------------------------------------------------
 Atomic radii for non-electrostatic terms: SMD-CDS.
 ------------------------------------------------------------------------------
 Nuclear repulsion after PCM non-electrostatic terms =        9.1436491522 Hartrees.
 One-electron integrals computed using PRISM.
 NBasis=    36 RedAO= T  NBF=    17     2     6    11
 NBsUse=    36 1.00D-06 NBFU=    17     2     6    11
 Initial guess read from the checkpoint file:  H2O.chk
 B after Tr=     0.000000    0.000000    0.000000
         Rot=    1.000000    0.000000    0.000000    0.000000 Ang=   0.00 deg.
 Initial guess orbital symmetries:
       Occupied  (A1) (A1) (B2) (A1) (B1)
       Virtual   (A1) (B2) (A1) (B1) (A1) (B2) (A1) (B2) (B2) (A1)
                 (A1) (B1) (B2) (A1) (A2) (A1) (B1) (B2) (B2) (A1)
                 (A1) (B2) (B1) (A2) (A1) (A1) (B2) (B1) (A1) (B2)
                 (A1)
 Requested convergence on RMS density matrix=1.00D-08 within 128 cycles.
 Requested convergence on MAX density matrix=1.00D-06.
 Requested convergence on             energy=1.00D-06.
 No special actions if energy rises.
 Keep R1 ints in memory in canonical form, NReq=3215626.
 Error on total polarization charges =  0.02712
 SCF Done:  E(RM062X) =  -76.4347427322     A.U. after    1 cycles
             Convg  =    0.1310D-08             -V/T =  2.0032
 SMD-CDS (non-electrostatic) energy             (kcal/mol) =       1.45
 (included in total energy above)
 Range of M.O.s used for correlation:     1    36
 NBasis=    36 NAE=     5 NBE=     5 NFC=     0 NFV=     0
 NROrb=     36 NOA=     5 NOB=     5 NVA=    31 NVB=    31
 Symmetrizing basis deriv contribution to polar:
 IMax=3 JMax=2 DiffMx= 0.00D+00
 G2DrvN: will do     4 centers at a time, making    1 passes doing MaxLOS=2.
 Calling FoFCou, ICntrl=  3107 FMM=F I1Cent=   0 AccDes= 0.00D+00.
 FoFDir/FoFCou used for L=0 through L=2.
 G2PCM: DoFxE=T DoFxN=T DoGrad=T DoPD/DQ/DG=FFF NFrqRd=   0 IEInf=0 DoCFld=F IF1Alg=4.
 End of G2Drv Frequency-dependent properties file   721 does not exist.
 End of G2Drv Frequency-dependent properties file   722 does not exist.
          IDoAtm=111
 NEqPCM:  Using equilibrium solvation (IEInf=0, Eps=  78.3553, EpsInf=   1.7778)
          Differentiating once with respect to electric field.
                with respect to dipole field.
          Differentiating once with respect to nuclear coordinates.
          Keep R1 ints in memory in canonical form, NReq=1068279.
          There are     9 degrees of freedom in the 1st order CPHF.  IDoFFX=4.
      9 vectors produced by pass  0 Test12= 1.72D-15 1.11D-08 XBig12= 2.30D+00 9.55D-01.
 AX will form     9 AO Fock derivatives at one time.
      9 vectors produced by pass  1 Test12= 1.72D-15 1.11D-08 XBig12= 1.68D-01 1.53D-01.
      9 vectors produced by pass  2 Test12= 1.72D-15 1.11D-08 XBig12= 2.62D-03 1.90D-02.
      9 vectors produced by pass  3 Test12= 1.72D-15 1.11D-08 XBig12= 1.34D-05 1.44D-03.
      9 vectors produced by pass  4 Test12= 1.72D-15 1.11D-08 XBig12= 1.12D-07 1.44D-04.
      7 vectors produced by pass  5 Test12= 1.72D-15 1.11D-08 XBig12= 4.68D-10 7.15D-06.
      3 vectors produced by pass  6 Test12= 1.72D-15 1.11D-08 XBig12= 1.19D-12 4.21D-07.
      1 vectors produced by pass  7 Test12= 1.72D-15 1.11D-08 XBig12= 1.48D-15 1.29D-08.
 Inverted reduced A of dimension    56 with in-core refinement.
 Isotropic polarizability for W=    0.000000        8.01 Bohr**3.
 End of Minotr Frequency-dependent properties file   721 does not exist.
 End of Minotr Frequency-dependent properties file   722 does not exist.

 **********************************************************************

            Population analysis using the SCF density.

 **********************************************************************

 Orbital symmetries:
       Occupied  (A1) (A1) (B2) (A1) (B1)
       Virtual   (A1) (B2) (A1) (B1) (A1) (B2) (A1) (B2) (B2) (A1)
                 (A1) (B1) (B2) (A1) (A2) (A1) (B1) (B2) (B2) (A1)
                 (A1) (B2) (B1) (A2) (A1) (A1) (B2) (B1) (A1) (B2)
                 (A1)
 The electronic state is 1-A1.
 Alpha  occ. eigenvalues --  -19.62237  -1.13212  -0.60364  -0.47996  -0.40454
 Alpha virt. eigenvalues --    0.00697   0.04576   0.16576   0.17524   0.19017
 Alpha virt. eigenvalues --    0.19408   0.25117   0.25448   0.55455   0.61015
 Alpha virt. eigenvalues --    1.01500   1.05397   1.05775   1.28169   1.32727
 Alpha virt. eigenvalues --    1.40752   1.51909   1.73197   2.06102   2.20105
 Alpha virt. eigenvalues --    2.45078   2.62118   3.16569   3.20948   3.37666
 Alpha virt. eigenvalues --    3.73078   3.94514   5.05476   5.42637   5.71808
 Alpha virt. eigenvalues --   49.98053
          Condensed to atoms (all electrons):
              1          2          3
     1  O    8.004129   0.323597   0.323597
     2  H    0.323597   0.367791  -0.017051
     3  H    0.323597  -0.017051   0.367791
 Mulliken atomic charges:
              1
     1  O   -0.651324
     2  H    0.325662
     3  H    0.325662
 Sum of Mulliken atomic charges =   0.00000
 Mulliken charges with hydrogens summed into heavy atoms:
              1
     1  O    0.000000
 Sum of Mulliken charges with hydrogens summed into heavy atoms =   0.00000
 APT atomic charges:
              1
     1  O   -0.781184
     2  H    0.390592
     3  H    0.390592
 Sum of APT charges=   0.00000
 APT Atomic charges with hydrogens summed into heavy atoms:
              1
     1  O    0.000000
     2  H    0.000000
     3  H    0.000000
 Sum of APT charges=   0.00000
 Electronic spatial extent (au):  <R**2>=             19.7922
 Charge=              0.0000 electrons
 Dipole moment (field-independent basis, Debye):
    X=              0.0000    Y=              0.0000    Z=             -2.6508  Tot=              2.6508
 Quadrupole moment (field-independent basis, Debye-Ang):
   XX=             -7.7903   YY=             -4.1987   ZZ=             -6.3967
   XY=              0.0000   XZ=              0.0000   YZ=              0.0000
 Traceless Quadrupole moment (field-independent basis, Debye-Ang):
   XX=             -1.6617   YY=              1.9299   ZZ=             -0.2681
   XY=              0.0000   XZ=              0.0000   YZ=              0.0000
 Octapole moment (field-independent basis, Debye-Ang**2):
  XXX=              0.0000  YYY=              0.0000  ZZZ=             -2.0805  XYY=              0.0000
  XXY=              0.0000  XXZ=             -0.5949  XZZ=              0.0000  YZZ=              0.0000
  YYZ=             -1.7170  XYZ=              0.0000
 Hexadecapole moment (field-independent basis, Debye-Ang**3):
 XXXX=             -7.3816 YYYY=             -5.9245 ZZZZ=             -7.7128 XXXY=              0.0000
 XXXZ=              0.0000 YYYX=              0.0000 YYYZ=              0.0000 ZZZX=              0.0000
 ZZZY=              0.0000 XXYY=             -2.5396 XXZZ=             -2.5783 YYZZ=             -1.8844
 XXYZ=              0.0000 YYXZ=              0.0000 ZZXY=              0.0000
 N-N= 9.143649152217D+00 E-N=-1.991831945954D+02  KE= 7.618953664109D+01
 Symmetry A1   KE= 6.803722647175D+01
 Symmetry A2   KE= 1.009943885102D-34
 Symmetry B1   KE= 4.456160153576D+00
 Symmetry B2   KE= 3.696150015765D+00
  Exact polarizability:   7.380   0.000   9.185   0.000   0.000   7.474
 Approx polarizability:   5.638   0.000   7.833   0.000   0.000   6.185
 D2PCM: PCM CHGder 2nd derivatives, FixD1E=F FixD2E=F DoIter=F DoCFld=F I1PDM=0
 Calling FoFJK, ICntrl=    100127 FMM=F ISym2X=1 I1Cent= 0 IOpClX= 0 NMat=1 NMatS=1 NMatT=0.
 Full mass-weighted force constant matrix:
 Low frequencies --- -269.0777 -216.2855 -189.9496    0.0007    0.0019    0.0023
 Low frequencies --- 1570.3902 3847.9266 3928.8974
 Diagonal vibrational polarizability:
        0.0000000       0.3243070       1.5380558
 Harmonic frequencies (cm**-1), IR intensities (KM/Mole), Raman scattering
 activities (A**4/AMU), depolarization ratios for plane and unpolarized
 incident light, reduced masses (AMU), force constants (mDyne/A),
 and normal coordinates:
                     1                      2                      3
                    A1                     A1                     B2
 Frequencies --  1570.3902              3847.9266              3928.8962
 Red. masses --     1.0807                 1.0470                 1.0816
 Frc consts  --     1.5702                 9.1342                 9.8372
 IR Inten    --   128.8900                72.3865               186.0220
  Atom  AN      X      Y      Z        X      Y      Z        X      Y      Z
     1   8     0.00   0.00   0.07     0.00   0.00   0.05     0.00   0.07   0.00
     2   1     0.00  -0.44  -0.55     0.00   0.58  -0.41     0.00  -0.56   0.43
     3   1     0.00   0.44  -0.55     0.00  -0.58  -0.41     0.00  -0.56  -0.43

 -------------------
 - Thermochemistry -
 -------------------
 Temperature   298.150 Kelvin.  Pressure   1.00000 Atm.
 Atom     1 has atomic number  8 and mass  15.99491
 Atom     2 has atomic number  1 and mass   1.00783
 Atom     3 has atomic number  1 and mass   1.00783
 Molecular mass:    18.01056 amu.
 Principal axes and moments of inertia in atomic units:
                           1         2         3
     Eigenvalues --     2.23244   4.15972   6.39216
           X            0.00000   0.00000   1.00000
           Y            1.00000   0.00000   0.00000
           Z            0.00000   1.00000   0.00000
 This molecule is an asymmetric top.
 Rotational symmetry number  2.
 Rotational temperatures (Kelvin)     38.79774    20.82203    13.55000
 Rotational constants (GHZ):         808.41475   433.86128   282.33649
 Zero-point vibrational energy      55908.7 (Joules/Mol)
                                   13.36251 (Kcal/Mol)
 Vibrational temperatures:   2259.44  5536.30  5652.80
          (Kelvin)
 
 Zero-point correction=                           0.021295 (Hartree/Particle)
 Thermal correction to Energy=                    0.024131
 Thermal correction to Enthalpy=                  0.025075
 Thermal correction to Gibbs Free Energy=         0.003646
 Sum of electronic and zero-point Energies=            -76.413448
 Sum of electronic and thermal Energies=               -76.410612
 Sum of electronic and thermal Enthalpies=             -76.409668
 Sum of electronic and thermal Free Energies=          -76.431096
 
                     E (Thermal)             CV                S
                      KCal/Mol        Cal/Mol-Kelvin    Cal/Mol-Kelvin
 Total                   15.142              6.020             45.100
 Electronic               0.000              0.000              0.000
 Translational            0.889              2.981             34.608
 Rotational               0.889              2.981             10.483
 Vibrational             13.365              0.058              0.009
                       Q            Log10(Q)             Ln(Q)
 Total Bot       0.210259D-01         -1.677246         -3.862002
 Total V=0       0.131078D+09          8.117531         18.691306
 Vib (Bot)       0.160489D-09         -9.794555        -22.552797
 Vib (V=0)       0.100051D+01          0.000222          0.000512
 Electronic      0.100000D+01          0.000000          0.000000
 Translational   0.300432D+07          6.477746         14.915562
 Rotational      0.436077D+02          1.639563          3.775233
 ***** Axes restored to original set *****
 -------------------------------------------------------------------
 Center     Atomic                   Forces (Hartrees/Bohr)
 Number     Number              X              Y              Z
 -------------------------------------------------------------------
      1        8           0.000000000    0.000000000   -0.000008885
      2        1           0.000000000    0.000017655    0.000004442
      3        1           0.000000000   -0.000017655    0.000004442
 -------------------------------------------------------------------
 Cartesian Forces:  Max     0.000017655 RMS     0.000009079

 GradGradGradGradGradGradGradGradGradGradGradGradGradGradGradGradGradGrad
 Berny optimization.
 Internal  Forces:  Max     0.000026098 RMS     0.000017631
 Search for a local minimum.
 Step number   1 out of a maximum of    2
 All quantities printed in internal units (Hartrees-Bohrs-Radians)
 Second derivative matrix not updated -- analytic derivatives used.
 The second derivative matrix:
                          R1        R2        A1
           R1           0.54301
           R2          -0.00214   0.54301
           A1           0.02448   0.02448   0.14660
     Eigenvalues ---    0.14358   0.54389   0.54515
 Angle between quadratic step and forces=  25.30 degrees.
 Linear search not attempted -- first point.
 Iteration  1 RMS(Cart)=  0.00010340 RMS(Int)=  0.00000001
 Iteration  2 RMS(Cart)=  0.00000000 RMS(Int)=  0.00000000
 ClnCor:  largest displacement from symmetrization is 1.73D-15 for atom     3.
 Variable       Old X    -DE/DX   Delta X   Delta X   Delta X     New X
                                 (Linear)    (Quad)   (Total)
    R1        1.81957   0.00001   0.00000   0.00001   0.00001   1.81958
    R2        1.81957   0.00001   0.00000   0.00001   0.00001   1.81958
    A1        1.82001   0.00003   0.00000   0.00017   0.00017   1.82018
         Item               Value     Threshold  Converged?
 Maximum Force            0.000026     0.000450     YES
 RMS     Force            0.000018     0.000300     YES
 Maximum Displacement     0.000107     0.001800     YES
 RMS     Displacement     0.000103     0.001200     YES
 Predicted change in Energy=-2.411276D-09
 Optimization completed.
    -- Stationary point found.
                           ----------------------------
                           !   Optimized Parameters   !
                           ! (Angstroms and Degrees)  !
 --------------------------                            --------------------------
 ! Name  Definition              Value          Derivative Info.                !
 --------------------------------------------------------------------------------
 ! R1    R(1,2)                  0.9629         -DE/DX =    0.0                 !
 ! R2    R(1,3)                  0.9629         -DE/DX =    0.0                 !
 ! A1    A(2,1,3)              104.2787         -DE/DX =    0.0                 !
 --------------------------------------------------------------------------------
 GradGradGradGradGradGradGradGradGradGradGradGradGradGradGradGradGradGrad

 1|1|UNPC-DESKTOP-5V797MC|Freq|RM062X|6-311++G(d,p)|H2O1|FLAVIO|17-Jan-
 2019|0||#N Geom=AllCheck Guess=TCheck SCRF=Check GenChk RM062X/6-311++
 G(d,p) Freq||h2o_m062x.inp optimization frequencies||0,1|O,0.,0.,0.118
 192|H,0.,0.760196,-0.472766|H,0.,-0.760196,-0.472766||Version=IA32W-G0
 9RevA.02|State=1-A1|HF=-76.4347427|RMSD=1.310e-009|RMSF=9.079e-006|Zer
 oPoint=0.0212945|Thermal=0.0241307|Dipole=0.,0.,-1.0428964|DipoleDeriv
 =-0.9369715,0.,0.,0.,-0.7986496,0.,0.,0.,-0.6079312,0.4684857,0.,0.,0.
 ,0.3993248,-0.0008051,0.,0.0537085,0.3039656,0.4684857,0.,0.,0.,0.3993
 248,0.0008051,0.,-0.0537085,0.3039656|Polar=7.3797843,0.,9.1845213,0.,
 0.,7.4744181|PG=C02V [C2(O1),SGV(H2)]|NImag=0||-0.00244421,0.,0.677980
 99,0.,0.,0.46570625,0.00122210,0.,0.,-0.00150313,0.,-0.33899049,0.2125
 3915,0.,0.36778342,0.,0.26586937,-0.23285313,0.,-0.23920426,0.21855735
 ,0.00122210,0.,0.,0.00028102,0.,0.,-0.00150313,0.,-0.33899049,-0.21253
 915,0.,-0.02879293,-0.02666511,0.,0.36778342,0.,-0.26586937,-0.2328531
 3,0.,0.02666511,0.01429578,0.,0.23920426,0.21855735||0.,0.,0.00000888,
 0.,-0.00001766,-0.00000444,0.,0.00001766,-0.00000444|||@


      THE ONE-EYED VIEW OF OUR UNIVERSE SAYS YOU MUST NOT LOOK
      FAR AFIELD FOR PROBLEMS.  SUCH PROBLEMS MAY NEVER ARRIVE. 
      INSTEAD, TEND TO THE WOLF WITHIN YOUR FENCES.
      THE PACKS RANGING OUTSIDE MAY NOT EVEN EXIST.

                              -- THE AZHAR BOOK SHAMRA I:4
                                 CHILDREN OF DUNE, BY FRANK HERBERT
 Job cpu time:  0 days  0 hours  0 minutes 12.0 seconds.
 File lengths (MBytes):  RWF=      5 Int=      0 D2E=      0 Chk=      2 Scr=      1
 Normal termination of Gaussian 09 at Thu Jan 17 19:50:52 2019.
