 Entering Link 1 = C:\G09W\l1.exe PID=     19236.
  
 Copyright (c) 1988,1990,1992,1993,1995,1998,2003,2009, Gaussian, Inc.
                  All Rights Reserved.
  
 This is part of the Gaussian(R) 09 program.  It is based on
 the Gaussian(R) 03 system (copyright 2003, Gaussian, Inc.),
 the Gaussian(R) 98 system (copyright 1998, Gaussian, Inc.),
 the Gaussian(R) 94 system (copyright 1995, Gaussian, Inc.),
 the Gaussian 92(TM) system (copyright 1992, Gaussian, Inc.),
 the Gaussian 90(TM) system (copyright 1990, Gaussian, Inc.),
 the Gaussian 88(TM) system (copyright 1988, Gaussian, Inc.),
 the Gaussian 86(TM) system (copyright 1986, Carnegie Mellon
 University), and the Gaussian 82(TM) system (copyright 1983,
 Carnegie Mellon University). Gaussian is a federally registered
 trademark of Gaussian, Inc.
  
 This software contains proprietary and confidential information,
 including trade secrets, belonging to Gaussian, Inc.
  
 This software is provided under written license and may be
 used, copied, transmitted, or stored only in accord with that
 written license.
  
 The following legend is applicable only to US Government
 contracts under FAR:
  
                    RESTRICTED RIGHTS LEGEND
  
 Use, reproduction and disclosure by the US Government is
 subject to restrictions as set forth in subparagraphs (a)
 and (c) of the Commercial Computer Software - Restricted
 Rights clause in FAR 52.227-19.
  
 Gaussian, Inc.
 340 Quinnipiac St., Bldg. 40, Wallingford CT 06492
  
  
 ---------------------------------------------------------------
 Warning -- This program may not be used in any manner that
 competes with the business of Gaussian, Inc. or will provide
 assistance to any competitor of Gaussian, Inc.  The licensee
 of this program is prohibited from giving any competitor of
 Gaussian, Inc. access to this program.  By using this program,
 the user acknowledges that Gaussian, Inc. is engaged in the
 business of creating and licensing software in the field of
 computational chemistry and represents and warrants to the
 licensee that it is not a competitor of Gaussian, Inc. and that
 it will not use this program in any manner prohibited above.
 ---------------------------------------------------------------
  

 Cite this work as:
 Gaussian 09, Revision A.02,
 M. J. Frisch, G. W. Trucks, H. B. Schlegel, G. E. Scuseria, 
 M. A. Robb, J. R. Cheeseman, G. Scalmani, V. Barone, B. Mennucci, 
 G. A. Petersson, H. Nakatsuji, M. Caricato, X. Li, H. P. Hratchian, 
 A. F. Izmaylov, J. Bloino, G. Zheng, J. L. Sonnenberg, M. Hada, 
 M. Ehara, K. Toyota, R. Fukuda, J. Hasegawa, M. Ishida, T. Nakajima, 
 Y. Honda, O. Kitao, H. Nakai, T. Vreven, J. A. Montgomery, Jr., 
 J. E. Peralta, F. Ogliaro, M. Bearpark, J. J. Heyd, E. Brothers, 
 K. N. Kudin, V. N. Staroverov, R. Kobayashi, J. Normand, 
 K. Raghavachari, A. Rendell, J. C. Burant, S. S. Iyengar, J. Tomasi, 
 M. Cossi, N. Rega, J. M. Millam, M. Klene, J. E. Knox, J. B. Cross, 
 V. Bakken, C. Adamo, J. Jaramillo, R. Gomperts, R. E. Stratmann, 
 O. Yazyev, A. J. Austin, R. Cammi, C. Pomelli, J. W. Ochterski, 
 R. L. Martin, K. Morokuma, V. G. Zakrzewski, G. A. Voth, 
 P. Salvador, J. J. Dannenberg, S. Dapprich, A. D. Daniels, 
 O. Farkas, J. B. Foresman, J. V. Ortiz, J. Cioslowski, 
 and D. J. Fox, Gaussian, Inc., Wallingford CT, 2009.
 
 ******************************************
 Gaussian 09:  IA32W-G09RevA.02 11-Jun-2009
                17-Jan-2019 
 ******************************************
 %mem=100mw
 %chk=NH2.chk
 ----------------------------------------------
 # M062X 6-311++G(d,p) SCRF=SMD opt FREQ volume
 ----------------------------------------------
 1/14=-1,18=20,19=15,26=3,38=1/1,3;
 2/9=110,12=2,17=6,18=5,40=1/2;
 3/5=4,6=6,7=1111,11=2,16=1,25=1,30=1,70=32201,71=1,72=1,74=-55/1,2,3;
 4//1;
 5/5=2,38=5/2;
 6/7=2,8=2,9=2,10=2,28=1,44=1/1,4;
 7//1,2,3,16;
 1/14=-1,18=20,19=15/3(2);
 2/9=110/2;
 99//99;
 2/9=110/2;
 3/5=4,6=6,7=1111,11=2,16=1,25=1,30=1,70=32205,71=1,74=-55/1,2,3;
 4/5=5,16=3/1;
 5/5=2,38=5/2;
 7//1,2,3,16;
 1/14=-1,18=20,19=15/3(-5);
 2/9=110/2;
 6/7=2,8=2,9=2,10=2,19=2,28=1,44=1/1,4;
 99/9=1/99;
 ------------------------------------------
 nh2_m062x.inp transition state frequencies
 ------------------------------------------
 Symbolic Z-matrix:
 Charge =  0 Multiplicity = 2
 N                     0.        0.        0.14135 
 H                     0.        0.80481  -0.49472 
 H                     0.       -0.80481  -0.49472 
 

 GradGradGradGradGradGradGradGradGradGradGradGradGradGradGradGradGradGrad
 Berny optimization.
 Initialization pass.
                           ----------------------------
                           !    Initial Parameters    !
                           ! (Angstroms and Degrees)  !
 --------------------------                            --------------------------
 ! Name  Definition              Value          Derivative Info.                !
 --------------------------------------------------------------------------------
 ! R1    R(1,2)                  1.0258         estimate D2E/DX2                !
 ! R2    R(1,3)                  1.0258         estimate D2E/DX2                !
 ! A1    A(2,1,3)              103.3585         estimate D2E/DX2                !
 --------------------------------------------------------------------------------
 Trust Radius=3.00D-01 FncErr=1.00D-07 GrdErr=1.00D-06
 Number of steps in this run=  20 maximum allowed number of steps= 100.
 GradGradGradGradGradGradGradGradGradGradGradGradGradGradGradGradGradGrad

                          Input orientation:                          
 ---------------------------------------------------------------------
 Center     Atomic      Atomic             Coordinates (Angstroms)
 Number     Number       Type             X           Y           Z
 ---------------------------------------------------------------------
      1          7           0        0.000000    0.000000    0.141350
      2          1           0        0.000000    0.804810   -0.494724
      3          1           0        0.000000   -0.804810   -0.494724
 ---------------------------------------------------------------------
                    Distance matrix (angstroms):
                    1          2          3
     1  N    0.000000
     2  H    1.025821   0.000000
     3  H    1.025821   1.609620   0.000000
 Stoichiometry    H2N(2)
 Framework group  C2V[C2(N),SGV(H2)]
 Deg. of freedom     2
 Full point group                 C2V     NOp   4
 Largest Abelian subgroup         C2V     NOp   4
 Largest concise Abelian subgroup C2      NOp   2
                         Standard orientation:                         
 ---------------------------------------------------------------------
 Center     Atomic      Atomic             Coordinates (Angstroms)
 Number     Number       Type             X           Y           Z
 ---------------------------------------------------------------------
      1          7           0        0.000000    0.000000    0.141350
      2          1           0        0.000000    0.804810   -0.494724
      3          1           0        0.000000   -0.804810   -0.494724
 ---------------------------------------------------------------------
 Rotational constants (GHZ):    708.9103324    387.0930102    250.3771876
 Standard basis: 6-311++G(d,p) (5D, 7F)
 There are    17 symmetry adapted basis functions of A1  symmetry.
 There are     2 symmetry adapted basis functions of A2  symmetry.
 There are     6 symmetry adapted basis functions of B1  symmetry.
 There are    11 symmetry adapted basis functions of B2  symmetry.
 Integral buffers will be    262144 words long.
 Raffenetti 2 integral format.
 Two-electron integral symmetry is turned on.
    36 basis functions,    54 primitive gaussians,    37 cartesian basis functions
     5 alpha electrons        4 beta electrons
       nuclear repulsion energy         7.5507588358 Hartrees.
 NAtoms=    3 NActive=    3 NUniq=    2 SFac= 1.69D+00 NAtFMM=   80 NAOKFM=F Big=F
 ------------------------------------------------------------------------------
 Polarizable Continuum Model (PCM)
 =================================
 Model                : PCM.
 Atomic radii         : SMD-Coulomb.
 Polarization charges : Total charges.
 Charge compensation  : None.
 Solution method      : Matrix inversion.
 Cavity type          : VdW (van der Waals Surface) (Alpha=1.000).
 Cavity algorithm     : GePol (No added spheres)
                        Default sphere list used, NSphG=    3.
                        Lebedev-Laikov grids with approx.  5.0 points / Ang**2.
                        Smoothing algorithm: Karplus/York (Gamma=1.0000).
                        Polarization charges: spherical gaussians, with
                                              point-specific exponents (IZeta= 3).
                        Self-potential: point-specific (ISelfS= 7).
                        Self-field    : sphere-specific E.n sum rule (ISelfD= 2).
 1st derivatives      : Analytical E(r).r(x)/FMM algorithm (CHGder, D1EAlg=3).
                        Cavity 1st derivative terms included.
 Solvent              : Water, Eps=  78.355300 Eps(inf)=   1.777849
 ------------------------------------------------------------------------------
 Spheres list:
 ISph  on   Nord    Re0     Alpha      Xe            Ye            Ze
    1   N      1    1.890   1.000      0.000000      0.000000      0.141350
    2   H      2    1.200   1.000      0.000000      0.804810     -0.494724
    3   H      3    1.200   1.000      0.000000     -0.804810     -0.494724
 ------------------------------------------------------------------------------
 ------------------------------------------------------------------------------
 Atomic radii for non-electrostatic terms: SMD-CDS.
 ------------------------------------------------------------------------------
 Nuclear repulsion after PCM non-electrostatic terms =        7.5531066748 Hartrees.
 One-electron integrals computed using PRISM.
 NBasis=    36 RedAO= T  NBF=    17     2     6    11
 NBsUse=    36 1.00D-06 NBFU=    17     2     6    11
 Harris functional with IExCor= 1009 diagonalized for initial guess.
 ExpMin= 3.60D-02 ExpMax= 6.29D+03 ExpMxC= 9.49D+02 IAcc=3 IRadAn=         0 AccDes= 0.00D+00
 HarFok:  IExCor= 1009 AccDes= 0.00D+00 IRadAn=         0 IDoV= 1
 ScaDFX=  1.000000  1.000000  1.000000  1.000000
 FoFCou: FMM=F IPFlag=           0 FMFlag=      100000 FMFlg1=           0
         NFxFlg=           0 DoJE=T BraDBF=F KetDBF=T FulRan=T
         Omega=  0.000000  0.000000  1.000000  0.000000  0.000000 ICntrl=     500 IOpCl=  0
         NMat0=    1 NMatS0=    1 NMatT0=    0 NMatD0=    1 NMtDS0=    0 NMtDT0=    0
         I1Cent=           4 NGrid=           0.
 Petite list used in FoFCou.
 Initial guess orbital symmetries:
 Alpha Orbitals:
       Occupied  (A1) (A1) (B2) (A1) (B1)
       Virtual   (A1) (B2) (A1) (B1) (B2) (A1) (B2) (A1) (B2) (A1)
                 (A1) (B1) (B2) (A1) (A1) (A2) (B1) (B2) (B2) (A1)
                 (B1) (A2) (A1) (B2) (A1) (A1) (B2) (B1) (A1) (B2)
                 (A1)
 Beta  Orbitals:
       Occupied  (A1) (A1) (B2) (A1)
       Virtual   (B1) (A1) (B2) (A1) (B1) (B2) (A1) (B2) (A1) (B2)
                 (A1) (A1) (B1) (B2) (A1) (A1) (A2) (B1) (B2) (B2)
                 (A1) (B1) (A2) (A1) (B2) (A1) (A1) (B2) (B1) (A1)
                 (B2) (A1)
 The electronic state of the initial guess is 2-B1.
 Initial guess <Sx>= 0.0000 <Sy>= 0.0000 <Sz>= 0.5000 <S**2>= 0.7500 S= 0.5000
 Requested convergence on RMS density matrix=1.00D-08 within 128 cycles.
 Requested convergence on MAX density matrix=1.00D-06.
 Requested convergence on             energy=1.00D-06.
 No special actions if energy rises.
 Keep R1 and R2 ints in memory in canonical form, NReq=3551407.
 Error on total polarization charges =  0.01506
 SCF Done:  E(UM062X) =  -55.8722304507     A.U. after   10 cycles
             Convg  =    0.4826D-08             -V/T =  2.0034
 <Sx>= 0.0000 <Sy>= 0.0000 <Sz>= 0.5000 <S**2>= 0.7538 S= 0.5019
 <L.S>= 0.000000000000E+00
 SMD-CDS (non-electrostatic) energy             (kcal/mol) =       1.47
 (included in total energy above)
 Annihilation of the first spin contaminant:
 S**2 before annihilation     0.7538,   after     0.7500

 **********************************************************************

            Population analysis using the SCF density.

 **********************************************************************

 Orbital symmetries:
 Alpha Orbitals:
       Occupied  (A1) (A1) (B2) (A1) (B1)
       Virtual   (A1) (B2) (A1) (B1) (B2) (A1) (A1) (B2) (B2) (A1)
                 (B1) (A1) (B2) (A1) (A1) (A2) (B1) (B2) (B2) (A1)
                 (B1) (A2) (A1) (B2) (A1) (A1) (B2) (B1) (A1) (B2)
                 (A1)
 Beta  Orbitals:
       Occupied  (A1) (A1) (B2) (A1)
       Virtual   (B1) (A1) (B2) (A1) (B1) (B2) (A1) (A1) (B2) (B2)
                 (A1) (A1) (B1) (B2) (A1) (A1) (A2) (B1) (B2) (B2)
                 (A1) (B1) (A2) (A1) (B2) (A1) (A1) (B2) (B1) (A1)
                 (B2) (A1)
 The electronic state is 2-B1.
 Alpha  occ. eigenvalues --  -14.76698  -0.95309  -0.53894  -0.40767  -0.38375
 Alpha virt. eigenvalues --    0.00740   0.04211   0.11818   0.13221   0.15933
 Alpha virt. eigenvalues --    0.18778   0.22406   0.23620   0.52923   0.61865
 Alpha virt. eigenvalues --    0.79141   0.79331   0.85389   1.05091   1.23942
 Alpha virt. eigenvalues --    1.25559   1.41418   1.66443   1.92315   1.98284
 Alpha virt. eigenvalues --    2.35454   2.38847   2.49571   2.54304   2.65166
 Alpha virt. eigenvalues --    2.89093   3.12539   3.82929   4.25064   4.67352
 Alpha virt. eigenvalues --   35.56395
  Beta  occ. eigenvalues --  -14.75615  -0.88982  -0.52022  -0.37434
  Beta virt. eigenvalues --   -0.06554   0.00975   0.04459   0.12100   0.14509
  Beta virt. eigenvalues --    0.15678   0.16104   0.22584   0.24073   0.53000
  Beta virt. eigenvalues --    0.62878   0.80500   0.83172   0.86647   1.07148
  Beta virt. eigenvalues --    1.25356   1.28194   1.43623   1.66855   1.93155
  Beta virt. eigenvalues --    2.03924   2.39241   2.42739   2.49886   2.54245
  Beta virt. eigenvalues --    2.66644   2.92372   3.15748   3.90786   4.25881
  Beta virt. eigenvalues --    4.69437  35.56641
          Condensed to atoms (all electrons):
              1          2          3
     1  N    6.897794   0.308816   0.308816
     2  H    0.308816   0.456764  -0.023294
     3  H    0.308816  -0.023294   0.456764
 Mulliken atomic charges:
              1
     1  N   -0.515427
     2  H    0.257713
     3  H    0.257713
 Sum of Mulliken atomic charges =   0.00000
 Mulliken charges with hydrogens summed into heavy atoms:
              1
     1  N    0.000000
 Sum of Mulliken charges with hydrogens summed into heavy atoms =   0.00000
          Atomic-Atomic Spin Densities.
              1          2          3
     1  N    1.089231  -0.005786  -0.005786
     2  H   -0.005786  -0.035220   0.002176
     3  H   -0.005786   0.002176  -0.035220
 Mulliken atomic spin densities:
              1
     1  N    1.077659
     2  H   -0.038830
     3  H   -0.038830
 Sum of Mulliken atomic spin densities =   1.00000
 Electronic spatial extent (au):  <R**2>=             22.2507
 Charge=              0.0000 electrons
 Dipole moment (field-independent basis, Debye):
    X=              0.0000    Y=              0.0000    Z=             -2.5448  Tot=              2.5448
 Quadrupole moment (field-independent basis, Debye-Ang):
   XX=             -7.3264   YY=             -5.4597   ZZ=             -7.8966
   XY=              0.0000   XZ=              0.0000   YZ=              0.0000
 Traceless Quadrupole moment (field-independent basis, Debye-Ang):
   XX=             -0.4322   YY=              1.4346   ZZ=             -1.0024
   XY=              0.0000   XZ=              0.0000   YZ=              0.0000
 Octapole moment (field-independent basis, Debye-Ang**2):
  XXX=              0.0000  YYY=              0.0000  ZZZ=             -3.0775  XYY=              0.0000
  XXY=              0.0000  XXZ=             -0.7703  XZZ=              0.0000  YZZ=              0.0000
  YYZ=             -1.7838  XYZ=              0.0000
 Hexadecapole moment (field-independent basis, Debye-Ang**3):
 XXXX=             -7.2979 YYYY=             -9.3553 ZZZZ=            -12.3639 XXXY=              0.0000
 XXXZ=              0.0000 YYYX=              0.0000 YYYZ=              0.0000 ZZZX=              0.0000
 ZZZY=              0.0000 XXYY=             -3.0721 XXZZ=             -3.3099 YYZZ=             -3.2419
 XXYZ=              0.0000 YYXZ=              0.0000 ZZXY=              0.0000
 N-N= 7.553106674835D+00 E-N=-2.149521130302D+02  KE= 8.255665828192D+01
 Symmetry A1   KE= 7.676762042248D+01
 Symmetry A2   KE= 5.834825810623D-35
 Symmetry B1   KE= 1.716686205625D+00
 Symmetry B2   KE= 4.072351653821D+00
                          Isotropic Fermi Contact Couplings
        Atom                 a.u.       MegaHertz       Gauss      10(-4) cm-1
     1  N(14)              0.17839      57.63908      20.56706      19.22633
     2  H(1)              -0.01650     -73.76905     -26.32263     -24.60671
     3  H(1)              -0.01650     -73.76905     -26.32263     -24.60671
 --------------------------------------------------------
       Center         ----  Spin Dipole Couplings  ----
                      3XX-RR        3YY-RR        3ZZ-RR
 --------------------------------------------------------
     1   Atom        2.139051     -1.069662     -1.069389
     2   Atom       -0.022339      0.042273     -0.019935
     3   Atom       -0.022339      0.042273     -0.019935
 --------------------------------------------------------
                        XY            XZ            YZ
 --------------------------------------------------------
     1   Atom        0.000000      0.000000      0.000000
     2   Atom        0.000000      0.000000     -0.110057
     3   Atom        0.000000      0.000000      0.110057
 --------------------------------------------------------


 ---------------------------------------------------------------------------------
              Anisotropic Spin Dipole Couplings in Principal Axis System
 ---------------------------------------------------------------------------------

       Atom             a.u.   MegaHertz   Gauss  10(-4) cm-1        Axes

              Baa    -1.0697   -41.255   -14.721   -13.761  0.0000  1.0000  0.0000
     1 N(14)  Bbb    -1.0694   -41.244   -14.717   -13.757  0.0000  0.0000  1.0000
              Bcc     2.1391    82.498    29.437    27.519  1.0000  0.0000  0.0000
 
              Baa    -0.1032   -55.062   -19.647   -18.367  0.0000  0.6033  0.7975
     2 H(1)   Bbb    -0.0223   -11.919    -4.253    -3.976  1.0000  0.0000  0.0000
              Bcc     0.1255    66.981    23.900    22.342  0.0000  0.7975 -0.6033
 
              Baa    -0.1032   -55.062   -19.647   -18.367  0.0000 -0.6033  0.7975
     3 H(1)   Bbb    -0.0223   -11.919    -4.253    -3.976  1.0000  0.0000  0.0000
              Bcc     0.1255    66.981    23.900    22.342  0.0000  0.7975  0.6033
 

 ---------------------------------------------------------------------------------

 Evaluate density.
 Using the total density.
 Monte-Carlo method of calculating molar volume:
 based on  0.001 e/bohr**3 density envelope.
 Number of points per bohr**3 =   20 CutOff= 1.00D-04
 Using the SCF density.
 There are       219 points.  Will hold       219 in memory.
 LenV=   104845957 MDV=   104857600.
 Box volume = 1318.862 fraction occupied=0.164
 Integrated density= 4.5112606823884560D+00 error=-4.4887393176115440D+00
 Molar volume =  216.799 bohr**3/mol ( 19.347 cm**3/mol)
 Recommended a0 for SCRF calculation =  2.67 angstrom (  5.05 bohr)
 D1PCM: PCM CHGder 1st derivatives, ID1Alg=3 FixD1E=F DoIter=F DoCFld=F I1PDM=0.
 Calling FoFJK, ICntrl=      2127 FMM=F ISym2X=1 I1Cent= 0 IOpClX= 1 NMat=1 NMatS=1 NMatT=0.
 ***** Axes restored to original set *****
 -------------------------------------------------------------------
 Center     Atomic                   Forces (Hartrees/Bohr)
 Number     Number              X              Y              Z
 -------------------------------------------------------------------
      1        7           0.000000000    0.000000000   -0.000011248
      2        1           0.000000000   -0.000008859    0.000005624
      3        1           0.000000000    0.000008859    0.000005624
 -------------------------------------------------------------------
 Cartesian Forces:  Max     0.000011248 RMS     0.000006207

 GradGradGradGradGradGradGradGradGradGradGradGradGradGradGradGradGradGrad
 Berny optimization.
 Internal  Forces:  Max     0.000010437 RMS     0.000008608
 Search for a local minimum.
 Step number   1 out of a maximum of   20
 All quantities printed in internal units (Hartrees-Bohrs-Radians)
 Mixed Optimization -- En-DIIS/RFO-DIIS
 Second derivative matrix not updated -- first step.
 The second derivative matrix:
                          R1        R2        A1
           R1           0.43422
           R2           0.00000   0.43422
           A1           0.00000   0.00000   0.16000
     Eigenvalues ---    0.16000   0.43422   0.43422
 RFO step:  Lambda= 0.00000000D+00 EMin= 1.60000000D-01
 Linear search not attempted -- first point.
 Iteration  1 RMS(Cart)=  0.00002195 RMS(Int)=  0.00000000
 Iteration  2 RMS(Cart)=  0.00000000 RMS(Int)=  0.00000000
 ClnCor:  largest displacement from symmetrization is 4.00D-16 for atom     3.
 Variable       Old X    -DE/DX   Delta X   Delta X   Delta X     New X
                                 (Linear)    (Quad)   (Total)
    R1        1.93852  -0.00001   0.00000  -0.00002  -0.00002   1.93850
    R2        1.93852  -0.00001   0.00000  -0.00002  -0.00002   1.93850
    A1        1.80395   0.00000   0.00000  -0.00001  -0.00001   1.80393
         Item               Value     Threshold  Converged?
 Maximum Force            0.000010     0.000450     YES
 RMS     Force            0.000009     0.000300     YES
 Maximum Displacement     0.000027     0.001800     YES
 RMS     Displacement     0.000022     0.001200     YES
 Predicted change in Energy=-2.646046D-10
 Optimization completed.
    -- Stationary point found.
                           ----------------------------
                           !   Optimized Parameters   !
                           ! (Angstroms and Degrees)  !
 --------------------------                            --------------------------
 ! Name  Definition              Value          Derivative Info.                !
 --------------------------------------------------------------------------------
 ! R1    R(1,2)                  1.0258         -DE/DX =    0.0                 !
 ! R2    R(1,3)                  1.0258         -DE/DX =    0.0                 !
 ! A1    A(2,1,3)              103.3585         -DE/DX =    0.0                 !
 --------------------------------------------------------------------------------
 GradGradGradGradGradGradGradGradGradGradGradGradGradGradGradGradGradGrad

                          Input orientation:                          
 ---------------------------------------------------------------------
 Center     Atomic      Atomic             Coordinates (Angstroms)
 Number     Number       Type             X           Y           Z
 ---------------------------------------------------------------------
      1          7           0        0.000000    0.000000    0.141350
      2          1           0        0.000000    0.804810   -0.494724
      3          1           0        0.000000   -0.804810   -0.494724
 ---------------------------------------------------------------------
                    Distance matrix (angstroms):
                    1          2          3
     1  N    0.000000
     2  H    1.025821   0.000000
     3  H    1.025821   1.609620   0.000000
 Stoichiometry    H2N(2)
 Framework group  C2V[C2(N),SGV(H2)]
 Deg. of freedom     2
 Full point group                 C2V     NOp   4
 Largest Abelian subgroup         C2V     NOp   4
 Largest concise Abelian subgroup C2      NOp   2
                         Standard orientation:                         
 ---------------------------------------------------------------------
 Center     Atomic      Atomic             Coordinates (Angstroms)
 Number     Number       Type             X           Y           Z
 ---------------------------------------------------------------------
      1          7           0        0.000000    0.000000    0.141350
      2          1           0        0.000000    0.804810   -0.494724
      3          1           0        0.000000   -0.804810   -0.494724
 ---------------------------------------------------------------------
 Rotational constants (GHZ):    708.9103324    387.0930102    250.3771876
 1|1|UNPC-DESKTOP-5V797MC|FOpt|UM062X|6-311++G(d,p)|H2N1(2)|FLAVIO|17-J
 an-2019|0||# M062X 6-311++G(d,p) SCRF=SMD opt FREQ volume||nh2_m062x.i
 np transition state frequencies||0,2|N,0.,0.,0.14135|H,0.,0.80481,-0.4
 94724|H,0.,-0.80481,-0.494724||Version=IA32W-G09RevA.02|State=2-B1|HF=
 -55.8722305|S2=0.753772|S2-1=0.|S2A=0.75001|RMSD=4.826e-009|RMSF=6.207
 e-006|Dipole=0.,0.,-1.001217|Quadrupole=-0.321318,1.0665621,-0.7452441
 ,0.,0.,0.|PG=C02V [C2(N1),SGV(H2)]||@


      THE ONE-EYED VIEW OF OUR UNIVERSE SAYS YOU MUST NOT LOOK
      FAR AFIELD FOR PROBLEMS.  SUCH PROBLEMS MAY NEVER ARRIVE. 
      INSTEAD, TEND TO THE WOLF WITHIN YOUR FENCES.
      THE PACKS RANGING OUTSIDE MAY NOT EVEN EXIST.

                              -- THE AZHAR BOOK SHAMRA I:4
                                 CHILDREN OF DUNE, BY FRANK HERBERT
 Job cpu time:  0 days  0 hours  0 minutes  8.0 seconds.
 File lengths (MBytes):  RWF=      5 Int=      0 D2E=      0 Chk=      1 Scr=      1
 Normal termination of Gaussian 09 at Thu Jan 17 19:51:01 2019.
 Link1:  Proceeding to internal job step number  2.
 ----------------------------------------------------------------------
 #N Geom=AllCheck Guess=TCheck SCRF=Check GenChk UM062X/6-311++G(d,p) F
 req
 ----------------------------------------------------------------------
 1/10=4,29=7,30=1,38=1,40=1/1,3;
 2/12=2,40=1/2;
 3/5=4,6=6,7=1111,11=2,14=-4,16=1,25=1,30=1,70=2,71=2,74=-55,116=2/1,2,3;
 4/5=101/1;
 5/5=2,98=1/2;
 8/6=4,10=90,11=11/1;
 11/6=1,8=1,9=11,15=111,16=1/1,2,10;
 10/6=1/2;
 6/7=2,8=2,9=2,10=2,18=1,28=1/1;
 7/8=1,10=1,25=1/1,2,3,16;
 1/10=4,30=1/3;
 99//99;
 ------------------------------------------
 nh2_m062x.inp transition state frequencies
 ------------------------------------------
 Redundant internal coordinates taken from checkpoint file:
 NH2.chk
 Charge =  0 Multiplicity = 2
 N,0,0.,0.,0.14135
 H,0,0.,0.80481,-0.494724
 H,0,0.,-0.80481,-0.494724
 Recover connectivity data from disk.

 GradGradGradGradGradGradGradGradGradGradGradGradGradGradGradGradGradGrad
 Berny optimization.
 Initialization pass.
                           ----------------------------
                           !    Initial Parameters    !
                           ! (Angstroms and Degrees)  !
 --------------------------                            --------------------------
 ! Name  Definition              Value          Derivative Info.                !
 --------------------------------------------------------------------------------
 ! R1    R(1,2)                  1.0258         calculate D2E/DX2 analytically  !
 ! R2    R(1,3)                  1.0258         calculate D2E/DX2 analytically  !
 ! A1    A(2,1,3)              103.3585         calculate D2E/DX2 analytically  !
 --------------------------------------------------------------------------------
 Trust Radius=3.00D-01 FncErr=1.00D-07 GrdErr=1.00D-07
 Number of steps in this run=   2 maximum allowed number of steps=   2.
 GradGradGradGradGradGradGradGradGradGradGradGradGradGradGradGradGradGrad

                          Input orientation:                          
 ---------------------------------------------------------------------
 Center     Atomic      Atomic             Coordinates (Angstroms)
 Number     Number       Type             X           Y           Z
 ---------------------------------------------------------------------
      1          7           0        0.000000    0.000000    0.141350
      2          1           0        0.000000    0.804810   -0.494724
      3          1           0        0.000000   -0.804810   -0.494724
 ---------------------------------------------------------------------
                    Distance matrix (angstroms):
                    1          2          3
     1  N    0.000000
     2  H    1.025821   0.000000
     3  H    1.025821   1.609620   0.000000
 Stoichiometry    H2N(2)
 Framework group  C2V[C2(N),SGV(H2)]
 Deg. of freedom     2
 Full point group                 C2V     NOp   4
 Largest Abelian subgroup         C2V     NOp   4
 Largest concise Abelian subgroup C2      NOp   2
                         Standard orientation:                         
 ---------------------------------------------------------------------
 Center     Atomic      Atomic             Coordinates (Angstroms)
 Number     Number       Type             X           Y           Z
 ---------------------------------------------------------------------
      1          7           0        0.000000    0.000000    0.141350
      2          1           0        0.000000    0.804810   -0.494724
      3          1           0        0.000000   -0.804810   -0.494724
 ---------------------------------------------------------------------
 Rotational constants (GHZ):    708.9103324    387.0930102    250.3771876
 Standard basis: 6-311++G(d,p) (5D, 7F)
 There are    17 symmetry adapted basis functions of A1  symmetry.
 There are     2 symmetry adapted basis functions of A2  symmetry.
 There are     6 symmetry adapted basis functions of B1  symmetry.
 There are    11 symmetry adapted basis functions of B2  symmetry.
 Integral buffers will be    262144 words long.
 Raffenetti 2 integral format.
 Two-electron integral symmetry is turned on.
    36 basis functions,    54 primitive gaussians,    37 cartesian basis functions
     5 alpha electrons        4 beta electrons
       nuclear repulsion energy         7.5507588358 Hartrees.
 NAtoms=    3 NActive=    3 NUniq=    2 SFac= 1.69D+00 NAtFMM=   80 NAOKFM=F Big=F
 ------------------------------------------------------------------------------
 Polarizable Continuum Model (PCM)
 =================================
 Model                : PCM.
 Atomic radii         : SMD-Coulomb.
 Polarization charges : Total charges.
 Charge compensation  : None.
 Solution method      : Matrix inversion.
 Cavity type          : VdW (van der Waals Surface) (Alpha=1.000).
 Cavity algorithm     : GePol (No added spheres)
                        Default sphere list used, NSphG=    3.
                        Lebedev-Laikov grids with approx.  5.0 points / Ang**2.
                        Smoothing algorithm: Karplus/York (Gamma=1.0000).
                        Polarization charges: spherical gaussians, with
                                              point-specific exponents (IZeta= 3).
                        Self-potential: point-specific (ISelfS= 7).
                        Self-field    : sphere-specific E.n sum rule (ISelfD= 2).
 1st derivatives      : Analytical E(r).r(x)/FMM algorithm (CHGder, D1EAlg=3).
                        Cavity 1st derivative terms included.
 2nd derivatives      : Analytical E(r).r(xy)/FMM algorithm (CHGder, D2EAlg=3).
                        Cavity 2nd derivative terms included.
 Solvent              : Water, Eps=  78.355300 Eps(inf)=   1.777849
 ------------------------------------------------------------------------------
 Spheres list:
 ISph  on   Nord    Re0     Alpha      Xe            Ye            Ze
    1   N      1    1.890   1.000      0.000000      0.000000      0.141350
    2   H      2    1.200   1.000      0.000000      0.804810     -0.494724
    3   H      3    1.200   1.000      0.000000     -0.804810     -0.494724
 ------------------------------------------------------------------------------
 ------------------------------------------------------------------------------
 Atomic radii for non-electrostatic terms: SMD-CDS.
 ------------------------------------------------------------------------------
 Nuclear repulsion after PCM non-electrostatic terms =        7.5531066748 Hartrees.
 One-electron integrals computed using PRISM.
 NBasis=    36 RedAO= T  NBF=    17     2     6    11
 NBsUse=    36 1.00D-06 NBFU=    17     2     6    11
 Initial guess read from the checkpoint file:  NH2.chk
 B after Tr=     0.000000    0.000000    0.000000
         Rot=    1.000000    0.000000    0.000000    0.000000 Ang=   0.00 deg.
 Initial guess orbital symmetries:
 Alpha Orbitals:
       Occupied  (A1) (A1) (B2) (A1) (B1)
       Virtual   (A1) (B2) (A1) (B1) (B2) (A1) (A1) (B2) (B2) (A1)
                 (B1) (A1) (B2) (A1) (A1) (A2) (B1) (B2) (B2) (A1)
                 (B1) (A2) (A1) (B2) (A1) (A1) (B2) (B1) (A1) (B2)
                 (A1)
 Beta  Orbitals:
       Occupied  (A1) (A1) (B2) (A1)
       Virtual   (B1) (A1) (B2) (A1) (B1) (B2) (A1) (A1) (B2) (B2)
                 (A1) (A1) (B1) (B2) (A1) (A1) (A2) (B1) (B2) (B2)
                 (A1) (B1) (A2) (A1) (B2) (A1) (A1) (B2) (B1) (A1)
                 (B2) (A1)
 Initial guess <Sx>= 0.0000 <Sy>= 0.0000 <Sz>= 0.5000 <S**2>= 0.7538 S= 0.5019
 Requested convergence on RMS density matrix=1.00D-08 within 128 cycles.
 Requested convergence on MAX density matrix=1.00D-06.
 Requested convergence on             energy=1.00D-06.
 No special actions if energy rises.
 Keep R1 and R2 ints in memory in canonical form, NReq=3551407.
 Error on total polarization charges =  0.01506
 SCF Done:  E(UM062X) =  -55.8722304507     A.U. after    1 cycles
             Convg  =    0.4454D-09             -V/T =  2.0034
 <Sx>= 0.0000 <Sy>= 0.0000 <Sz>= 0.5000 <S**2>= 0.7538 S= 0.5019
 <L.S>= 0.000000000000E+00
 SMD-CDS (non-electrostatic) energy             (kcal/mol) =       1.47
 (included in total energy above)
 Annihilation of the first spin contaminant:
 S**2 before annihilation     0.7538,   after     0.7500
 Range of M.O.s used for correlation:     1    36
 NBasis=    36 NAE=     5 NBE=     4 NFC=     0 NFV=     0
 NROrb=     36 NOA=     5 NOB=     4 NVA=    31 NVB=    32
 Symmetrizing basis deriv contribution to polar:
 IMax=3 JMax=2 DiffMx= 0.00D+00
 G2DrvN: will do     4 centers at a time, making    1 passes doing MaxLOS=2.
 Calling FoFCou, ICntrl=  3107 FMM=F I1Cent=   0 AccDes= 0.00D+00.
 FoFDir/FoFCou used for L=0 through L=2.
 G2PCM: DoFxE=T DoFxN=T DoGrad=T DoPD/DQ/DG=FFF NFrqRd=   0 IEInf=0 DoCFld=F IF1Alg=4.
 End of G2Drv Frequency-dependent properties file   721 does not exist.
 End of G2Drv Frequency-dependent properties file   722 does not exist.
          IDoAtm=111
 NEqPCM:  Using equilibrium solvation (IEInf=0, Eps=  78.3553, EpsInf=   1.7778)
          Differentiating once with respect to electric field.
                with respect to dipole field.
          Differentiating once with respect to nuclear coordinates.
          Keep R1 and R2 ints in memory in canonical form, NReq=1315778.
          There are     9 degrees of freedom in the 1st order CPHF.  IDoFFX=4.
      9 vectors produced by pass  0 Test12= 3.14D-15 1.11D-08 XBig12= 7.71D+00 1.24D+00.
 AX will form     9 AO Fock derivatives at one time.
      9 vectors produced by pass  1 Test12= 3.14D-15 1.11D-08 XBig12= 4.27D-01 1.98D-01.
      9 vectors produced by pass  2 Test12= 3.14D-15 1.11D-08 XBig12= 1.58D-02 7.22D-02.
      9 vectors produced by pass  3 Test12= 3.14D-15 1.11D-08 XBig12= 1.35D-04 4.99D-03.
      9 vectors produced by pass  4 Test12= 3.14D-15 1.11D-08 XBig12= 1.50D-06 3.87D-04.
      9 vectors produced by pass  5 Test12= 3.14D-15 1.11D-08 XBig12= 1.59D-08 3.93D-05.
      7 vectors produced by pass  6 Test12= 3.14D-15 1.11D-08 XBig12= 1.32D-10 3.82D-06.
      2 vectors produced by pass  7 Test12= 3.14D-15 1.11D-08 XBig12= 3.99D-13 1.83D-07.
      1 vectors produced by pass  8 Test12= 3.14D-15 1.11D-08 XBig12= 3.51D-15 1.69D-08.
 Inverted reduced A of dimension    64 with in-core refinement.
 Isotropic polarizability for W=    0.000000       11.11 Bohr**3.
 End of Minotr Frequency-dependent properties file   721 does not exist.
 End of Minotr Frequency-dependent properties file   722 does not exist.

 **********************************************************************

            Population analysis using the SCF density.

 **********************************************************************

 Orbital symmetries:
 Alpha Orbitals:
       Occupied  (A1) (A1) (B2) (A1) (B1)
       Virtual   (A1) (B2) (A1) (B1) (B2) (A1) (A1) (B2) (B2) (A1)
                 (B1) (A1) (B2) (A1) (A1) (A2) (B1) (B2) (B2) (A1)
                 (B1) (A2) (A1) (B2) (A1) (A1) (B2) (B1) (A1) (B2)
                 (A1)
 Beta  Orbitals:
       Occupied  (A1) (A1) (B2) (A1)
       Virtual   (B1) (A1) (B2) (A1) (B1) (B2) (A1) (A1) (B2) (B2)
                 (A1) (A1) (B1) (B2) (A1) (A1) (A2) (B1) (B2) (B2)
                 (A1) (B1) (A2) (A1) (B2) (A1) (A1) (B2) (B1) (A1)
                 (B2) (A1)
 The electronic state is 2-B1.
 Alpha  occ. eigenvalues --  -14.76698  -0.95309  -0.53894  -0.40767  -0.38375
 Alpha virt. eigenvalues --    0.00740   0.04211   0.11818   0.13221   0.15933
 Alpha virt. eigenvalues --    0.18778   0.22406   0.23620   0.52923   0.61865
 Alpha virt. eigenvalues --    0.79141   0.79331   0.85389   1.05091   1.23942
 Alpha virt. eigenvalues --    1.25559   1.41418   1.66443   1.92315   1.98284
 Alpha virt. eigenvalues --    2.35454   2.38847   2.49571   2.54304   2.65166
 Alpha virt. eigenvalues --    2.89093   3.12539   3.82929   4.25064   4.67352
 Alpha virt. eigenvalues --   35.56395
  Beta  occ. eigenvalues --  -14.75615  -0.88982  -0.52022  -0.37434
  Beta virt. eigenvalues --   -0.06554   0.00975   0.04459   0.12100   0.14509
  Beta virt. eigenvalues --    0.15678   0.16104   0.22584   0.24073   0.53000
  Beta virt. eigenvalues --    0.62878   0.80500   0.83172   0.86647   1.07148
  Beta virt. eigenvalues --    1.25356   1.28194   1.43623   1.66855   1.93155
  Beta virt. eigenvalues --    2.03924   2.39241   2.42739   2.49886   2.54245
  Beta virt. eigenvalues --    2.66644   2.92372   3.15748   3.90786   4.25881
  Beta virt. eigenvalues --    4.69437  35.56641
          Condensed to atoms (all electrons):
              1          2          3
     1  N    6.897794   0.308816   0.308816
     2  H    0.308816   0.456764  -0.023294
     3  H    0.308816  -0.023294   0.456764
 Mulliken atomic charges:
              1
     1  N   -0.515427
     2  H    0.257713
     3  H    0.257713
 Sum of Mulliken atomic charges =   0.00000
 Mulliken charges with hydrogens summed into heavy atoms:
              1
     1  N    0.000000
 Sum of Mulliken charges with hydrogens summed into heavy atoms =   0.00000
          Atomic-Atomic Spin Densities.
              1          2          3
     1  N    1.089231  -0.005786  -0.005786
     2  H   -0.005786  -0.035220   0.002176
     3  H   -0.005786   0.002176  -0.035220
 Mulliken atomic spin densities:
              1
     1  N    1.077659
     2  H   -0.038830
     3  H   -0.038830
 Sum of Mulliken atomic spin densities =   1.00000
 APT atomic charges:
              1
     1  N   -0.510573
     2  H    0.255286
     3  H    0.255286
 Sum of APT charges=   0.00000
 APT Atomic charges with hydrogens summed into heavy atoms:
              1
     1  N    0.000000
     2  H    0.000000
     3  H    0.000000
 Sum of APT charges=   0.00000
 Electronic spatial extent (au):  <R**2>=             22.2507
 Charge=              0.0000 electrons
 Dipole moment (field-independent basis, Debye):
    X=              0.0000    Y=              0.0000    Z=             -2.5448  Tot=              2.5448
 Quadrupole moment (field-independent basis, Debye-Ang):
   XX=             -7.3264   YY=             -5.4597   ZZ=             -7.8966
   XY=              0.0000   XZ=              0.0000   YZ=              0.0000
 Traceless Quadrupole moment (field-independent basis, Debye-Ang):
   XX=             -0.4322   YY=              1.4346   ZZ=             -1.0024
   XY=              0.0000   XZ=              0.0000   YZ=              0.0000
 Octapole moment (field-independent basis, Debye-Ang**2):
  XXX=              0.0000  YYY=              0.0000  ZZZ=             -3.0775  XYY=              0.0000
  XXY=              0.0000  XXZ=             -0.7703  XZZ=              0.0000  YZZ=              0.0000
  YYZ=             -1.7838  XYZ=              0.0000
 Hexadecapole moment (field-independent basis, Debye-Ang**3):
 XXXX=             -7.2979 YYYY=             -9.3553 ZZZZ=            -12.3639 XXXY=              0.0000
 XXXZ=              0.0000 YYYX=              0.0000 YYYZ=              0.0000 ZZZX=              0.0000
 ZZZY=              0.0000 XXYY=             -3.0721 XXZZ=             -3.3099 YYZZ=             -3.2419
 XXYZ=              0.0000 YYXZ=              0.0000 ZZXY=              0.0000
 N-N= 7.553106674835D+00 E-N=-2.149521130328D+02  KE= 8.255665828418D+01
 Symmetry A1   KE= 7.676762043743D+01
 Symmetry A2   KE= 6.455700625424D-35
 Symmetry B1   KE= 1.716686219349D+00
 Symmetry B2   KE= 4.072351627400D+00
  Exact polarizability:   9.140   0.000  13.097   0.000   0.000  11.093
 Approx polarizability:   6.193   0.000  10.917   0.000   0.000   8.734
                          Isotropic Fermi Contact Couplings
        Atom                 a.u.       MegaHertz       Gauss      10(-4) cm-1
     1  N(14)              0.17839      57.63906      20.56705      19.22632
     2  H(1)              -0.01650     -73.76906     -26.32263     -24.60671
     3  H(1)              -0.01650     -73.76906     -26.32263     -24.60671
 --------------------------------------------------------
       Center         ----  Spin Dipole Couplings  ----
                      3XX-RR        3YY-RR        3ZZ-RR
 --------------------------------------------------------
     1   Atom        2.139051     -1.069662     -1.069389
     2   Atom       -0.022339      0.042273     -0.019935
     3   Atom       -0.022339      0.042273     -0.019935
 --------------------------------------------------------
                        XY            XZ            YZ
 --------------------------------------------------------
     1   Atom        0.000000      0.000000      0.000000
     2   Atom        0.000000      0.000000     -0.110057
     3   Atom        0.000000      0.000000      0.110057
 --------------------------------------------------------


 ---------------------------------------------------------------------------------
              Anisotropic Spin Dipole Couplings in Principal Axis System
 ---------------------------------------------------------------------------------

       Atom             a.u.   MegaHertz   Gauss  10(-4) cm-1        Axes

              Baa    -1.0697   -41.254   -14.721   -13.761  0.0000  1.0000  0.0000
     1 N(14)  Bbb    -1.0694   -41.244   -14.717   -13.757  0.0000  0.0000  1.0000
              Bcc     2.1391    82.498    29.437    27.519  1.0000  0.0000  0.0000
 
              Baa    -0.1032   -55.062   -19.647   -18.367  0.0000  0.6033  0.7975
     2 H(1)   Bbb    -0.0223   -11.919    -4.253    -3.976  1.0000  0.0000  0.0000
              Bcc     0.1255    66.981    23.900    22.342  0.0000  0.7975 -0.6033
 
              Baa    -0.1032   -55.062   -19.647   -18.367  0.0000 -0.6033  0.7975
     3 H(1)   Bbb    -0.0223   -11.919    -4.253    -3.976  1.0000  0.0000  0.0000
              Bcc     0.1255    66.981    23.900    22.342  0.0000  0.7975  0.6033
 

 ---------------------------------------------------------------------------------

 D2PCM: PCM CHGder 2nd derivatives, FixD1E=F FixD2E=F DoIter=F DoCFld=F I1PDM=0
 Calling FoFJK, ICntrl=    100127 FMM=F ISym2X=1 I1Cent= 0 IOpClX= 1 NMat=1 NMatS=1 NMatT=0.
 Full mass-weighted force constant matrix:
 Low frequencies --- -370.9507 -239.1091 -114.2938   -0.0010    0.0008    0.0010
 Low frequencies --- 1471.2205 3417.5875 3500.7981
 Diagonal vibrational polarizability:
        0.0000000       0.0279484       0.5880478
 Harmonic frequencies (cm**-1), IR intensities (KM/Mole), Raman scattering
 activities (A**4/AMU), depolarization ratios for plane and unpolarized
 incident light, reduced masses (AMU), force constants (mDyne/A),
 and normal coordinates:
                     1                      2                      3
                    A1                     A1                     B2
 Frequencies --  1471.2205              3417.5875              3500.7980
 Red. masses --     1.0899                 1.0515                 1.0902
 Frc consts  --     1.3899                 7.2358                 7.8719
 IR Inten    --    47.2455                 0.2789                12.7279
  Atom  AN      X      Y      Z        X      Y      Z        X      Y      Z
     1   7     0.00   0.00   0.08     0.00   0.00   0.06     0.00   0.08   0.00
     2   1     0.00  -0.44  -0.55     0.00   0.58  -0.40     0.00  -0.55   0.44
     3   1     0.00   0.44  -0.55     0.00  -0.58  -0.40     0.00  -0.55  -0.44

 -------------------
 - Thermochemistry -
 -------------------
 Temperature   298.150 Kelvin.  Pressure   1.00000 Atm.
 Atom     1 has atomic number  7 and mass  14.00307
 Atom     2 has atomic number  1 and mass   1.00783
 Atom     3 has atomic number  1 and mass   1.00783
 Molecular mass:    16.01872 amu.
 Principal axes and moments of inertia in atomic units:
                           1         2         3
     Eigenvalues --     2.54580   4.66229   7.20809
           X            0.00000   0.00000   1.00000
           Y            1.00000   0.00000   0.00000
           Z            0.00000   1.00000   0.00000
 This molecule is an asymmetric top.
 Rotational symmetry number  2.
 Rotational temperatures (Kelvin)     34.02229    18.57751    12.01620
 Rotational constants (GHZ):         708.91033   387.09301   250.37719
 Zero-point vibrational energy      50181.0 (Joules/Mol)
                                   11.99354 (Kcal/Mol)
 Vibrational temperatures:   2116.76  4917.14  5036.86
          (Kelvin)
 
 Zero-point correction=                           0.019113 (Hartree/Particle)
 Thermal correction to Energy=                    0.021951
 Thermal correction to Enthalpy=                  0.022895
 Thermal correction to Gibbs Free Energy=         0.000804
 Sum of electronic and zero-point Energies=            -55.853118
 Sum of electronic and thermal Energies=               -55.850279
 Sum of electronic and thermal Enthalpies=             -55.849335
 Sum of electronic and thermal Free Energies=          -55.871427
 
                     E (Thermal)             CV                S
                      KCal/Mol        Cal/Mol-Kelvin    Cal/Mol-Kelvin
 Total                   13.774              6.044             46.496
 Electronic               0.000              0.000              1.377
 Translational            0.889              2.981             34.259
 Rotational               0.889              2.981             10.846
 Vibrational             11.997              0.083              0.013
                       Q            Log10(Q)             Ln(Q)
 Total Bot       0.426978D+00         -0.369594         -0.851022
 Total V=0       0.264073D+09          8.421724         19.391736
 Vib (Bot)       0.161823D-08         -8.790959        -20.241932
 Vib (V=0)       0.100083D+01          0.000359          0.000826
 Electronic      0.200000D+01          0.301030          0.693147
 Translational   0.251998D+07          6.401397         14.739762
 Rotational      0.523526D+02          1.718938          3.958001
 ***** Axes restored to original set *****
 -------------------------------------------------------------------
 Center     Atomic                   Forces (Hartrees/Bohr)
 Number     Number              X              Y              Z
 -------------------------------------------------------------------
      1        7           0.000000000    0.000000000   -0.000011247
      2        1           0.000000000   -0.000008858    0.000005623
      3        1           0.000000000    0.000008858    0.000005623
 -------------------------------------------------------------------
 Cartesian Forces:  Max     0.000011247 RMS     0.000006206

 GradGradGradGradGradGradGradGradGradGradGradGradGradGradGradGradGradGrad
 Berny optimization.
 Internal  Forces:  Max     0.000010437 RMS     0.000008607
 Search for a local minimum.
 Step number   1 out of a maximum of    2
 All quantities printed in internal units (Hartrees-Bohrs-Radians)
 Second derivative matrix not updated -- analytic derivatives used.
 The second derivative matrix:
                          R1        R2        A1
           R1           0.42654
           R2          -0.00263   0.42654
           A1           0.02564   0.02564   0.14558
     Eigenvalues ---    0.14093   0.42856   0.42917
 Angle between quadratic step and forces=   1.58 degrees.
 Linear search not attempted -- first point.
 Iteration  1 RMS(Cart)=  0.00001908 RMS(Int)=  0.00000000
 Iteration  2 RMS(Cart)=  0.00000000 RMS(Int)=  0.00000000
 ClnCor:  largest displacement from symmetrization is 3.14D-16 for atom     3.
 Variable       Old X    -DE/DX   Delta X   Delta X   Delta X     New X
                                 (Linear)    (Quad)   (Total)
    R1        1.93852  -0.00001   0.00000  -0.00002  -0.00002   1.93850
    R2        1.93852  -0.00001   0.00000  -0.00002  -0.00002   1.93850
    A1        1.80395   0.00000   0.00000  -0.00001  -0.00001   1.80394
         Item               Value     Threshold  Converged?
 Maximum Force            0.000010     0.000450     YES
 RMS     Force            0.000009     0.000300     YES
 Maximum Displacement     0.000023     0.001800     YES
 RMS     Displacement     0.000019     0.001200     YES
 Predicted change in Energy=-2.593736D-10
 Optimization completed.
    -- Stationary point found.
                           ----------------------------
                           !   Optimized Parameters   !
                           ! (Angstroms and Degrees)  !
 --------------------------                            --------------------------
 ! Name  Definition              Value          Derivative Info.                !
 --------------------------------------------------------------------------------
 ! R1    R(1,2)                  1.0258         -DE/DX =    0.0                 !
 ! R2    R(1,3)                  1.0258         -DE/DX =    0.0                 !
 ! A1    A(2,1,3)              103.3585         -DE/DX =    0.0                 !
 --------------------------------------------------------------------------------
 GradGradGradGradGradGradGradGradGradGradGradGradGradGradGradGradGradGrad

 1|1|UNPC-DESKTOP-5V797MC|Freq|UM062X|6-311++G(d,p)|H2N1(2)|FLAVIO|17-J
 an-2019|0||#N Geom=AllCheck Guess=TCheck SCRF=Check GenChk UM062X/6-31
 1++G(d,p) Freq||nh2_m062x.inp transition state frequencies||0,2|N,0.,0
 .,0.14135|H,0.,0.80481,-0.494724|H,0.,-0.80481,-0.494724||Version=IA32
 W-G09RevA.02|State=2-B1|HF=-55.8722305|S2=0.753772|S2-1=0.|S2A=0.75001
 |RMSD=4.454e-010|RMSF=6.206e-006|ZeroPoint=0.0191129|Thermal=0.021951|
 Dipole=0.,0.,-1.001217|DipoleDeriv=-0.8686408,0.,0.,0.,-0.4150933,0.,0
 .,0.,-0.2479846,0.4343204,0.,0.,0.,0.2075467,0.083535,0.,0.163921,0.12
 39923,0.4343204,0.,0.,0.,0.2075467,-0.083535,0.,-0.163921,0.1239923|Po
 lar=9.1400096,0.,13.0972219,0.,0.,11.0926303|PG=C02V [C2(N1),SGV(H2)]|
 NImag=0||-0.00917560,0.,0.52741490,0.,0.,0.36988591,0.00458780,0.,0.,-
 0.00254301,0.,-0.26370745,0.16241635,0.,0.29008169,0.,0.20982706,-0.18
 494295,0.,-0.18612170,0.17425984,0.00458780,0.,0.,-0.00204479,0.,0.,-0
 .00254301,0.,-0.26370745,-0.16241635,0.,-0.02637424,-0.02370535,0.,0.2
 9008169,0.,-0.20982706,-0.18494295,0.,0.02370535,0.01068312,0.,0.18612
 170,0.17425984||0.,0.,0.00001125,0.,0.00000886,-0.00000562,0.,-0.00000
 886,-0.00000562|||@


      TO SUSPECT YOUR OWN MORTALITY IS TO KNOW THE BEGINNING OF TERROR.
      TO LEARN IRREFUTABLY THAT YOU ARE MORTAL IS TO KNOW THE END
      OF TERROR.

                                                  -- JESSICA
                                                     CHILDREN OF DUNE
                                                     BY FRANK HERBERT
 Job cpu time:  0 days  0 hours  0 minutes 17.0 seconds.
 File lengths (MBytes):  RWF=     10 Int=      0 D2E=      0 Chk=      2 Scr=      1
 Normal termination of Gaussian 09 at Thu Jan 17 19:51:19 2019.
