 Entering Link 1 = C:\G09W\l1.exe PID=     16248.
  
 Copyright (c) 1988,1990,1992,1993,1995,1998,2003,2009, Gaussian, Inc.
                  All Rights Reserved.
  
 This is part of the Gaussian(R) 09 program.  It is based on
 the Gaussian(R) 03 system (copyright 2003, Gaussian, Inc.),
 the Gaussian(R) 98 system (copyright 1998, Gaussian, Inc.),
 the Gaussian(R) 94 system (copyright 1995, Gaussian, Inc.),
 the Gaussian 92(TM) system (copyright 1992, Gaussian, Inc.),
 the Gaussian 90(TM) system (copyright 1990, Gaussian, Inc.),
 the Gaussian 88(TM) system (copyright 1988, Gaussian, Inc.),
 the Gaussian 86(TM) system (copyright 1986, Carnegie Mellon
 University), and the Gaussian 82(TM) system (copyright 1983,
 Carnegie Mellon University). Gaussian is a federally registered
 trademark of Gaussian, Inc.
  
 This software contains proprietary and confidential information,
 including trade secrets, belonging to Gaussian, Inc.
  
 This software is provided under written license and may be
 used, copied, transmitted, or stored only in accord with that
 written license.
  
 The following legend is applicable only to US Government
 contracts under FAR:
  
                    RESTRICTED RIGHTS LEGEND
  
 Use, reproduction and disclosure by the US Government is
 subject to restrictions as set forth in subparagraphs (a)
 and (c) of the Commercial Computer Software - Restricted
 Rights clause in FAR 52.227-19.
  
 Gaussian, Inc.
 340 Quinnipiac St., Bldg. 40, Wallingford CT 06492
  
  
 ---------------------------------------------------------------
 Warning -- This program may not be used in any manner that
 competes with the business of Gaussian, Inc. or will provide
 assistance to any competitor of Gaussian, Inc.  The licensee
 of this program is prohibited from giving any competitor of
 Gaussian, Inc. access to this program.  By using this program,
 the user acknowledges that Gaussian, Inc. is engaged in the
 business of creating and licensing software in the field of
 computational chemistry and represents and warrants to the
 licensee that it is not a competitor of Gaussian, Inc. and that
 it will not use this program in any manner prohibited above.
 ---------------------------------------------------------------
  

 Cite this work as:
 Gaussian 09, Revision A.02,
 M. J. Frisch, G. W. Trucks, H. B. Schlegel, G. E. Scuseria, 
 M. A. Robb, J. R. Cheeseman, G. Scalmani, V. Barone, B. Mennucci, 
 G. A. Petersson, H. Nakatsuji, M. Caricato, X. Li, H. P. Hratchian, 
 A. F. Izmaylov, J. Bloino, G. Zheng, J. L. Sonnenberg, M. Hada, 
 M. Ehara, K. Toyota, R. Fukuda, J. Hasegawa, M. Ishida, T. Nakajima, 
 Y. Honda, O. Kitao, H. Nakai, T. Vreven, J. A. Montgomery, Jr., 
 J. E. Peralta, F. Ogliaro, M. Bearpark, J. J. Heyd, E. Brothers, 
 K. N. Kudin, V. N. Staroverov, R. Kobayashi, J. Normand, 
 K. Raghavachari, A. Rendell, J. C. Burant, S. S. Iyengar, J. Tomasi, 
 M. Cossi, N. Rega, J. M. Millam, M. Klene, J. E. Knox, J. B. Cross, 
 V. Bakken, C. Adamo, J. Jaramillo, R. Gomperts, R. E. Stratmann, 
 O. Yazyev, A. J. Austin, R. Cammi, C. Pomelli, J. W. Ochterski, 
 R. L. Martin, K. Morokuma, V. G. Zakrzewski, G. A. Voth, 
 P. Salvador, J. J. Dannenberg, S. Dapprich, A. D. Daniels, 
 O. Farkas, J. B. Foresman, J. V. Ortiz, J. Cioslowski, 
 and D. J. Fox, Gaussian, Inc., Wallingford CT, 2009.
 
 ******************************************
 Gaussian 09:  IA32W-G09RevA.02 11-Jun-2009
                17-Jan-2019 
 ******************************************
 %mem=100mw
 %chk=OH.chk
 ----------------------------------------------
 # M062X 6-311++G(d,p) SCRF=SMD opt FREQ volume
 ----------------------------------------------
 1/14=-1,18=20,19=15,26=3,38=1/1,3;
 2/9=110,12=2,17=6,18=5,40=1/2;
 3/5=4,6=6,7=1111,11=2,16=1,25=1,30=1,70=32201,71=1,72=1,74=-55/1,2,3;
 4//1;
 5/5=2,38=5/2;
 6/7=2,8=2,9=2,10=2,28=1,44=1/1,4;
 7//1,2,3,16;
 1/14=-1,18=20,19=15/3(2);
 2/9=110/2;
 99//99;
 2/9=110/2;
 3/5=4,6=6,7=1111,11=2,16=1,25=1,30=1,70=32205,71=1,74=-55/1,2,3;
 4/5=5,16=3/1;
 5/5=2,38=5/2;
 7//1,2,3,16;
 1/14=-1,18=20,19=15/3(-5);
 2/9=110/2;
 6/7=2,8=2,9=2,10=2,19=2,28=1,44=1/1,4;
 99/9=1/99;
 -------------------------------------
 oh_m062x.inp optimization frequencies
 -------------------------------------
 Symbolic Z-matrix:
 Charge =  0 Multiplicity = 2
 O                     0.        0.        0.10833 
 H                     0.        0.       -0.86666 
 

 GradGradGradGradGradGradGradGradGradGradGradGradGradGradGradGradGradGrad
 Berny optimization.
 Initialization pass.
                           ----------------------------
                           !    Initial Parameters    !
                           ! (Angstroms and Degrees)  !
 --------------------------                            --------------------------
 ! Name  Definition              Value          Derivative Info.                !
 --------------------------------------------------------------------------------
 ! R1    R(1,2)                  0.975          estimate D2E/DX2                !
 --------------------------------------------------------------------------------
 Trust Radius=3.00D-01 FncErr=1.00D-07 GrdErr=1.00D-06
 Number of steps in this run=  20 maximum allowed number of steps= 100.
 GradGradGradGradGradGradGradGradGradGradGradGradGradGradGradGradGradGrad

                          Input orientation:                          
 ---------------------------------------------------------------------
 Center     Atomic      Atomic             Coordinates (Angstroms)
 Number     Number       Type             X           Y           Z
 ---------------------------------------------------------------------
      1          8           0        0.000000    0.000000    0.108333
      2          1           0        0.000000    0.000000   -0.866660
 ---------------------------------------------------------------------
 Stoichiometry    HO(2)
 Framework group  C*V[C*(HO)]
 Deg. of freedom     1
 Full point group                 C*V     NOp   4
 Largest Abelian subgroup         C2V     NOp   4
 Largest concise Abelian subgroup C1      NOp   1
                         Standard orientation:                         
 ---------------------------------------------------------------------
 Center     Atomic      Atomic             Coordinates (Angstroms)
 Number     Number       Type             X           Y           Z
 ---------------------------------------------------------------------
      1          8           0        0.000000    0.000000    0.108333
      2          1           0        0.000000    0.000000   -0.866660
 ---------------------------------------------------------------------
 Rotational constants (GHZ):      0.0000000    560.7458090    560.7458090
 Standard basis: 6-311++G(d,p) (5D, 7F)
 There are    16 symmetry adapted basis functions of A1  symmetry.
 There are     1 symmetry adapted basis functions of A2  symmetry.
 There are     6 symmetry adapted basis functions of B1  symmetry.
 There are     6 symmetry adapted basis functions of B2  symmetry.
 Integral buffers will be    262144 words long.
 Raffenetti 2 integral format.
 Two-electron integral symmetry is turned on.
    29 basis functions,    45 primitive gaussians,    30 cartesian basis functions
     5 alpha electrons        4 beta electrons
       nuclear repulsion energy         4.3419980130 Hartrees.
 NAtoms=    2 NActive=    2 NUniq=    2 SFac= 7.50D-01 NAtFMM=   80 NAOKFM=F Big=F
 ------------------------------------------------------------------------------
 Polarizable Continuum Model (PCM)
 =================================
 Model                : PCM.
 Atomic radii         : SMD-Coulomb.
 Polarization charges : Total charges.
 Charge compensation  : None.
 Solution method      : Matrix inversion.
 Cavity type          : VdW (van der Waals Surface) (Alpha=1.000).
 Cavity algorithm     : GePol (No added spheres)
                        Default sphere list used, NSphG=    2.
                        Lebedev-Laikov grids with approx.  5.0 points / Ang**2.
                        Smoothing algorithm: Karplus/York (Gamma=1.0000).
                        Polarization charges: spherical gaussians, with
                                              point-specific exponents (IZeta= 3).
                        Self-potential: point-specific (ISelfS= 7).
                        Self-field    : sphere-specific E.n sum rule (ISelfD= 2).
 1st derivatives      : Analytical E(r).r(x)/FMM algorithm (CHGder, D1EAlg=3).
                        Cavity 1st derivative terms included.
 Solvent              : Water, Eps=  78.355300 Eps(inf)=   1.777849
 ------------------------------------------------------------------------------
 Spheres list:
 ISph  on   Nord    Re0     Alpha      Xe            Ye            Ze
    1   O      1    1.520   1.000      0.000000      0.000000      0.108333
    2   H      2    1.200   1.000      0.000000      0.000000     -0.866660
 ------------------------------------------------------------------------------
 ------------------------------------------------------------------------------
 Atomic radii for non-electrostatic terms: SMD-CDS.
 ------------------------------------------------------------------------------
 Nuclear repulsion after PCM non-electrostatic terms =        4.3431692527 Hartrees.
 One-electron integrals computed using PRISM.
 NBasis=    29 RedAO= T  NBF=    16     1     6     6
 NBsUse=    29 1.00D-06 NBFU=    16     1     6     6
 Harris functional with IExCor= 1009 diagonalized for initial guess.
 ExpMin= 3.60D-02 ExpMax= 8.59D+03 ExpMxC= 1.30D+03 IAcc=3 IRadAn=         0 AccDes= 0.00D+00
 HarFok:  IExCor= 1009 AccDes= 0.00D+00 IRadAn=         0 IDoV= 1
 ScaDFX=  1.000000  1.000000  1.000000  1.000000
 FoFCou: FMM=F IPFlag=           0 FMFlag=      100000 FMFlg1=           0
         NFxFlg=           0 DoJE=T BraDBF=F KetDBF=T FulRan=T
         Omega=  0.000000  0.000000  1.000000  0.000000  0.000000 ICntrl=     500 IOpCl=  0
         NMat0=    1 NMatS0=    1 NMatT0=    0 NMatD0=    1 NMtDS0=    0 NMtDT0=    0
         I1Cent=           4 NGrid=           0.
 Petite list used in FoFCou.
 Initial guess orbital symmetries:
 Alpha Orbitals:
       Occupied  (SG) (SG) (SG) (PI) (PI)
       Virtual   (SG) (SG) (PI) (PI) (SG) (SG) (SG) (SG) (PI) (PI)
                 (SG) (PI) (PI) (SG) (SG) (DLTA) (DLTA) (PI) (PI)
                 (SG) (PI) (PI) (SG) (SG)
 Beta  Orbitals:
       Occupied  (SG) (SG) (SG) (PI)
       Virtual   (PI) (SG) (SG) (PI) (PI) (SG) (SG) (SG) (SG) (PI)
                 (PI) (SG) (PI) (PI) (SG) (SG) (DLTA) (DLTA) (PI)
                 (PI) (SG) (PI) (PI) (SG) (SG)
 Initial guess <Sx>= 0.0000 <Sy>= 0.0000 <Sz>= 0.5000 <S**2>= 0.7500 S= 0.5000
 Requested convergence on RMS density matrix=1.00D-08 within 128 cycles.
 Requested convergence on MAX density matrix=1.00D-06.
 Requested convergence on             energy=1.00D-06.
 No special actions if energy rises.
 Keep R1 and R2 ints in memory in canonical form, NReq=3142791.
 Error on total polarization charges =  0.02382
 SCF Done:  E(UM062X) =  -75.7359880673     A.U. after   10 cycles
             Convg  =    0.4017D-08             -V/T =  2.0025
 <Sx>= 0.0000 <Sy>= 0.0000 <Sz>= 0.5000 <S**2>= 0.7527 S= 0.5013
 <L.S>= 0.000000000000E+00
 SMD-CDS (non-electrostatic) energy             (kcal/mol) =       0.73
 (included in total energy above)
 Annihilation of the first spin contaminant:
 S**2 before annihilation     0.7527,   after     0.7500

 **********************************************************************

            Population analysis using the SCF density.

 **********************************************************************

 Orbital symmetries:
 Alpha Orbitals:
       Occupied  (SG) (SG) (SG) (PI) (PI)
       Virtual   (SG) (SG) (PI) (PI) (SG) (SG) (SG) (PI) (SG) (PI)
                 (SG) (PI) (PI) (SG) (SG) (DLTA) (DLTA) (PI) (PI)
                 (SG) (PI) (PI) (SG) (SG)
 Beta  Orbitals:
       Occupied  (SG) (SG) (SG) (?A)
       Virtual   (?A) (SG) (SG) (?A) (?A) (SG) (SG) (SG) (SG) (PI)
                 (PI) (SG) (PI) (PI) (SG) (SG) (DLTA) (DLTA) (PI)
                 (PI) (SG) (PI) (PI) (SG) (SG)
 Unable to determine electronic state:  an orbital has unidentified symmetry.
 Alpha  occ. eigenvalues --  -19.68942  -1.14055  -0.56375  -0.50198  -0.44163
 Alpha virt. eigenvalues --    0.01355   0.16038   0.16996   0.17169   0.18800
 Alpha virt. eigenvalues --    0.24591   0.56201   1.00447   1.01108   1.03894
 Alpha virt. eigenvalues --    1.34774   1.38487   1.39462   2.06478   2.50871
 Alpha virt. eigenvalues --    2.81943   2.81953   3.10857   3.15120   3.80525
 Alpha virt. eigenvalues --    4.93668   5.00144   5.46579  49.87405
  Beta  occ. eigenvalues --  -19.67325  -1.05645  -0.53135  -0.40501
  Beta virt. eigenvalues --   -0.10251   0.01345   0.16011   0.17493   0.18279
  Beta virt. eigenvalues --    0.19545   0.22761   0.56780   1.01940   1.04964
  Beta virt. eigenvalues --    1.05902   1.37270   1.39952   1.40018   2.08140
  Beta virt. eigenvalues --    2.51129   2.87931   2.91564   3.15851   3.16956
  Beta virt. eigenvalues --    3.84535   5.01667   5.04013   5.48905  49.86920
          Condensed to atoms (all electrons):
              1          2
     1  O    8.038116   0.287723
     2  H    0.287723   0.386437
 Mulliken atomic charges:
              1
     1  O   -0.325840
     2  H    0.325840
 Sum of Mulliken atomic charges =   0.00000
 Mulliken charges with hydrogens summed into heavy atoms:
              1
     1  O    0.000000
 Sum of Mulliken charges with hydrogens summed into heavy atoms =   0.00000
          Atomic-Atomic Spin Densities.
              1          2
     1  O    1.021616   0.002543
     2  H    0.002543  -0.026702
 Mulliken atomic spin densities:
              1
     1  O    1.024159
     2  H   -0.024159
 Sum of Mulliken atomic spin densities =   1.00000
 Electronic spatial extent (au):  <R**2>=             15.6776
 Charge=              0.0000 electrons
 Dipole moment (field-independent basis, Debye):
    X=              0.0000    Y=              0.0000    Z=             -2.2414  Tot=              2.2414
 Quadrupole moment (field-independent basis, Debye-Ang):
   XX=             -6.9232   YY=             -5.5367   ZZ=             -4.5682
   XY=              0.0000   XZ=              0.0000   YZ=              0.0000
 Traceless Quadrupole moment (field-independent basis, Debye-Ang):
   XX=             -1.2472   YY=              0.1393   ZZ=              1.1078
   XY=              0.0000   XZ=              0.0000   YZ=              0.0000
 Octapole moment (field-independent basis, Debye-Ang**2):
  XXX=              0.0000  YYY=              0.0000  ZZZ=             -2.7065  XYY=              0.0000
  XXY=              0.0000  XXZ=             -0.4755  XZZ=              0.0000  YZZ=              0.0000
  YYZ=             -0.3466  XYZ=              0.0000
 Hexadecapole moment (field-independent basis, Debye-Ang**3):
 XXXX=             -6.3414 YYYY=             -4.0543 ZZZZ=             -5.4392 XXXY=              0.0000
 XXXZ=              0.0000 YYYX=              0.0000 YYYZ=              0.0000 ZZZX=              0.0000
 ZZZY=              0.0000 XXYY=             -1.7326 XXZZ=             -2.2568 YYZZ=             -1.8519
 XXYZ=              0.0000 YYXZ=              0.0000 ZZXY=              0.0000
 N-N= 4.343169252731D+00 E-N=-2.773245693145D+02  KE= 1.119223350070D+02
 Symmetry A1   KE= 1.024273156671D+02
 Symmetry A2   KE= 2.106908275082D-35
 Symmetry B1   KE= 6.981328831971D+00
 Symmetry B2   KE= 2.513690507848D+00
                          Isotropic Fermi Contact Couplings
        Atom                 a.u.       MegaHertz       Gauss      10(-4) cm-1
     1  O(17)              0.16046     -97.26970     -34.70825     -32.44568
     2  H(1)              -0.01551     -69.33210     -24.73942     -23.12670
 --------------------------------------------------------
       Center         ----  Spin Dipole Couplings  ----
                      3XX-RR        3YY-RR        3ZZ-RR
 --------------------------------------------------------
     1   Atom       -1.873633      3.758900     -1.885267
     2   Atom       -0.131295     -0.042582      0.173876
 --------------------------------------------------------
                        XY            XZ            YZ
 --------------------------------------------------------
     1   Atom        0.000000      0.000000      0.000000
     2   Atom        0.000000      0.000000      0.000000
 --------------------------------------------------------


 ---------------------------------------------------------------------------------
              Anisotropic Spin Dipole Couplings in Principal Axis System
 ---------------------------------------------------------------------------------

       Atom             a.u.   MegaHertz   Gauss  10(-4) cm-1        Axes

              Baa    -1.8853   136.417    48.677    45.504  0.0000  0.0000  1.0000
     1 O(17)  Bbb    -1.8736   135.575    48.376    45.223  1.0000  0.0000  0.0000
              Bcc     3.7589  -271.991   -97.053   -90.727  0.0000  1.0000  0.0000
 
              Baa    -0.1313   -70.053   -24.997   -23.367  1.0000  0.0000  0.0000
     2 H(1)   Bbb    -0.0426   -22.720    -8.107    -7.578  0.0000  1.0000  0.0000
              Bcc     0.1739    92.772    33.103    30.945  0.0000  0.0000  1.0000
 

 ---------------------------------------------------------------------------------

 Evaluate density.
 Using the total density.
 Monte-Carlo method of calculating molar volume:
 based on  0.001 e/bohr**3 density envelope.
 Number of points per bohr**3 =   20 CutOff= 1.00D-04
 Using the SCF density.
 There are       198 points.  Will hold       198 in memory.
 LenV=   104849128 MDV=   104857600.
 Box volume =  982.544 fraction occupied=0.207
 Integrated density= 5.3995421646275847D+00 error=-3.6004578353724153D+00
 Molar volume =  203.456 bohr**3/mol ( 18.156 cm**3/mol)
 Recommended a0 for SCRF calculation =  2.63 angstrom (  4.96 bohr)
 D1PCM: PCM CHGder 1st derivatives, ID1Alg=3 FixD1E=F DoIter=F DoCFld=F I1PDM=0.
 Calling FoFJK, ICntrl=      2127 FMM=F ISym2X=1 I1Cent= 0 IOpClX= 1 NMat=1 NMatS=1 NMatT=0.
 ***** Axes restored to original set *****
 -------------------------------------------------------------------
 Center     Atomic                   Forces (Hartrees/Bohr)
 Number     Number              X              Y              Z
 -------------------------------------------------------------------
      1        8           0.000000000    0.000000000   -0.000131440
      2        1           0.000000000    0.000000000    0.000131440
 -------------------------------------------------------------------
 Cartesian Forces:  Max     0.000131440 RMS     0.000075887

 GradGradGradGradGradGradGradGradGradGradGradGradGradGradGradGradGradGrad
 Berny optimization.
 Internal  Forces:  Max     0.000131440 RMS     0.000131440
 Search for a local minimum.
 Step number   1 out of a maximum of   20
 All quantities printed in internal units (Hartrees-Bohrs-Radians)
 Mixed Optimization -- En-DIIS/RFO-DIIS
 Second derivative matrix not updated -- first step.
 The second derivative matrix:
                          R1
           R1           0.52370
     Eigenvalues ---    0.52370
 RFO step:  Lambda=-3.29896467D-08 EMin= 5.23696406D-01
 Linear search not attempted -- first point.
 Iteration  1 RMS(Cart)=  0.00017747 RMS(Int)=  0.00000000
 Iteration  2 RMS(Cart)=  0.00000000 RMS(Int)=  0.00000000
 ClnCor:  largest displacement from symmetrization is 0.00D+00 for atom     0.
 Variable       Old X    -DE/DX   Delta X   Delta X   Delta X     New X
                                 (Linear)    (Quad)   (Total)
    R1        1.84247  -0.00013   0.00000  -0.00025  -0.00025   1.84222
         Item               Value     Threshold  Converged?
 Maximum Force            0.000131     0.000450     YES
 RMS     Force            0.000131     0.000300     YES
 Maximum Displacement     0.000125     0.001800     YES
 RMS     Displacement     0.000177     0.001200     YES
 Predicted change in Energy=-1.649482D-08
 Optimization completed.
    -- Stationary point found.
                           ----------------------------
                           !   Optimized Parameters   !
                           ! (Angstroms and Degrees)  !
 --------------------------                            --------------------------
 ! Name  Definition              Value          Derivative Info.                !
 --------------------------------------------------------------------------------
 ! R1    R(1,2)                  0.975          -DE/DX =   -0.0001              !
 --------------------------------------------------------------------------------
 GradGradGradGradGradGradGradGradGradGradGradGradGradGradGradGradGradGrad

                          Input orientation:                          
 ---------------------------------------------------------------------
 Center     Atomic      Atomic             Coordinates (Angstroms)
 Number     Number       Type             X           Y           Z
 ---------------------------------------------------------------------
      1          8           0        0.000000    0.000000    0.108333
      2          1           0        0.000000    0.000000   -0.866660
 ---------------------------------------------------------------------
 Stoichiometry    HO(2)
 Framework group  C*V[C*(HO)]
 Deg. of freedom     1
 Full point group                 C*V     NOp   4
 Largest Abelian subgroup         C2V     NOp   4
 Largest concise Abelian subgroup C1      NOp   1
                         Standard orientation:                         
 ---------------------------------------------------------------------
 Center     Atomic      Atomic             Coordinates (Angstroms)
 Number     Number       Type             X           Y           Z
 ---------------------------------------------------------------------
      1          8           0        0.000000    0.000000    0.108333
      2          1           0        0.000000    0.000000   -0.866660
 ---------------------------------------------------------------------
 Rotational constants (GHZ):      0.0000000    560.7458090    560.7458090
 1|1|UNPC-DESKTOP-5V797MC|FOpt|UM062X|6-311++G(d,p)|H1O1(2)|FLAVIO|17-J
 an-2019|0||# M062X 6-311++G(d,p) SCRF=SMD opt FREQ volume||oh_m062x.in
 p optimization frequencies||0,2|O,0.,0.,0.108333|H,0.,0.,-0.86666||Ver
 sion=IA32W-G09RevA.02|HF=-75.7359881|S2=0.752681|S2-1=0.|S2A=0.750005|
 RMSD=4.017e-009|RMSF=7.589e-005|Dipole=0.,0.,-0.8818532|Quadrupole=-0.
 9272324,0.103586,0.8236464,0.,0.,0.|PG=C*V [C*(H1O1)]||@


 CLIMB THE MOUNTAINS AND GET THEIR GOOD TIDINGS.
 NATURE'S PEACE WILL FLOW INTO YOU AS SUNSHINE FLOWS INTO TREES.
 THE WINDS WILL BLOW THEIR OWN FRESHNESS INTO YOU, 
 AND CARES WILL DROP OFF LIKE AUTUMN LEAVES.

                                         -- JOHN MUIR
 Job cpu time:  0 days  0 hours  0 minutes  8.0 seconds.
 File lengths (MBytes):  RWF=      5 Int=      0 D2E=      0 Chk=      1 Scr=      1
 Normal termination of Gaussian 09 at Thu Jan 17 19:58:31 2019.
 Link1:  Proceeding to internal job step number  2.
 ----------------------------------------------------------------------
 #N Geom=AllCheck Guess=TCheck SCRF=Check GenChk UM062X/6-311++G(d,p) F
 req
 ----------------------------------------------------------------------
 1/10=4,29=7,30=1,38=1,40=1/1,3;
 2/12=2,40=1/2;
 3/5=4,6=6,7=1111,11=2,14=-4,16=1,25=1,30=1,70=2,71=2,74=-55,116=2/1,2,3;
 4/5=101/1;
 5/5=2,98=1/2;
 8/6=4,10=90,11=11/1;
 11/6=1,8=1,9=11,15=111,16=1/1,2,10;
 10/6=1/2;
 6/7=2,8=2,9=2,10=2,18=1,28=1/1;
 7/8=1,10=1,25=1/1,2,3,16;
 1/10=4,30=1/3;
 99//99;
 -------------------------------------
 oh_m062x.inp optimization frequencies
 -------------------------------------
 Redundant internal coordinates taken from checkpoint file:
 OH.chk
 Charge =  0 Multiplicity = 2
 O,0,0.,0.,0.108333
 H,0,0.,0.,-0.86666
 Recover connectivity data from disk.

 GradGradGradGradGradGradGradGradGradGradGradGradGradGradGradGradGradGrad
 Berny optimization.
 Initialization pass.
                           ----------------------------
                           !    Initial Parameters    !
                           ! (Angstroms and Degrees)  !
 --------------------------                            --------------------------
 ! Name  Definition              Value          Derivative Info.                !
 --------------------------------------------------------------------------------
 ! R1    R(1,2)                  0.975          calculate D2E/DX2 analytically  !
 --------------------------------------------------------------------------------
 Trust Radius=3.00D-01 FncErr=1.00D-07 GrdErr=1.00D-07
 Number of steps in this run=   2 maximum allowed number of steps=   2.
 GradGradGradGradGradGradGradGradGradGradGradGradGradGradGradGradGradGrad

                          Input orientation:                          
 ---------------------------------------------------------------------
 Center     Atomic      Atomic             Coordinates (Angstroms)
 Number     Number       Type             X           Y           Z
 ---------------------------------------------------------------------
      1          8           0        0.000000    0.000000    0.108333
      2          1           0        0.000000    0.000000   -0.866660
 ---------------------------------------------------------------------
 Stoichiometry    HO(2)
 Framework group  C*V[C*(HO)]
 Deg. of freedom     1
 Full point group                 C*V     NOp   4
 Largest Abelian subgroup         C2V     NOp   4
 Largest concise Abelian subgroup C1      NOp   1
                         Standard orientation:                         
 ---------------------------------------------------------------------
 Center     Atomic      Atomic             Coordinates (Angstroms)
 Number     Number       Type             X           Y           Z
 ---------------------------------------------------------------------
      1          8           0        0.000000    0.000000    0.108333
      2          1           0        0.000000    0.000000   -0.866660
 ---------------------------------------------------------------------
 Rotational constants (GHZ):      0.0000000    560.7458090    560.7458090
 Standard basis: 6-311++G(d,p) (5D, 7F)
 There are    16 symmetry adapted basis functions of A1  symmetry.
 There are     1 symmetry adapted basis functions of A2  symmetry.
 There are     6 symmetry adapted basis functions of B1  symmetry.
 There are     6 symmetry adapted basis functions of B2  symmetry.
 Integral buffers will be    262144 words long.
 Raffenetti 2 integral format.
 Two-electron integral symmetry is turned on.
    29 basis functions,    45 primitive gaussians,    30 cartesian basis functions
     5 alpha electrons        4 beta electrons
       nuclear repulsion energy         4.3419980130 Hartrees.
 NAtoms=    2 NActive=    2 NUniq=    2 SFac= 7.50D-01 NAtFMM=   80 NAOKFM=F Big=F
 ------------------------------------------------------------------------------
 Polarizable Continuum Model (PCM)
 =================================
 Model                : PCM.
 Atomic radii         : SMD-Coulomb.
 Polarization charges : Total charges.
 Charge compensation  : None.
 Solution method      : Matrix inversion.
 Cavity type          : VdW (van der Waals Surface) (Alpha=1.000).
 Cavity algorithm     : GePol (No added spheres)
                        Default sphere list used, NSphG=    2.
                        Lebedev-Laikov grids with approx.  5.0 points / Ang**2.
                        Smoothing algorithm: Karplus/York (Gamma=1.0000).
                        Polarization charges: spherical gaussians, with
                                              point-specific exponents (IZeta= 3).
                        Self-potential: point-specific (ISelfS= 7).
                        Self-field    : sphere-specific E.n sum rule (ISelfD= 2).
 1st derivatives      : Analytical E(r).r(x)/FMM algorithm (CHGder, D1EAlg=3).
                        Cavity 1st derivative terms included.
 2nd derivatives      : Analytical E(r).r(xy)/FMM algorithm (CHGder, D2EAlg=3).
                        Cavity 2nd derivative terms included.
 Solvent              : Water, Eps=  78.355300 Eps(inf)=   1.777849
 ------------------------------------------------------------------------------
 Spheres list:
 ISph  on   Nord    Re0     Alpha      Xe            Ye            Ze
    1   O      1    1.520   1.000      0.000000      0.000000      0.108333
    2   H      2    1.200   1.000      0.000000      0.000000     -0.866660
 ------------------------------------------------------------------------------
 ------------------------------------------------------------------------------
 Atomic radii for non-electrostatic terms: SMD-CDS.
 ------------------------------------------------------------------------------
 Nuclear repulsion after PCM non-electrostatic terms =        4.3431692527 Hartrees.
 One-electron integrals computed using PRISM.
 NBasis=    29 RedAO= T  NBF=    16     1     6     6
 NBsUse=    29 1.00D-06 NBFU=    16     1     6     6
 Initial guess read from the checkpoint file:  OH.chk
 B after Tr=     0.000000    0.000000    0.000000
         Rot=    1.000000    0.000000    0.000000    0.000000 Ang=   0.00 deg.
 Initial guess orbital symmetries:
 Alpha Orbitals:
       Occupied  (SG) (SG) (SG) (PI) (PI)
       Virtual   (SG) (SG) (PI) (PI) (SG) (SG) (SG) (PI) (SG) (PI)
                 (SG) (PI) (PI) (SG) (SG) (DLTA) (DLTA) (PI) (PI)
                 (SG) (PI) (PI) (SG) (SG)
 Beta  Orbitals:
       Occupied  (SG) (SG) (SG) (?A)
       Virtual   (?A) (SG) (SG) (?A) (?A) (SG) (SG) (SG) (SG) (PI)
                 (PI) (SG) (PI) (PI) (SG) (SG) (DLTA) (DLTA) (PI)
                 (PI) (SG) (PI) (PI) (SG) (SG)
 Initial guess <Sx>= 0.0000 <Sy>= 0.0000 <Sz>= 0.5000 <S**2>= 0.7527 S= 0.5013
 Requested convergence on RMS density matrix=1.00D-08 within 128 cycles.
 Requested convergence on MAX density matrix=1.00D-06.
 Requested convergence on             energy=1.00D-06.
 No special actions if energy rises.
 Keep R1 and R2 ints in memory in canonical form, NReq=3142791.
 Error on total polarization charges =  0.02382
 SCF Done:  E(UM062X) =  -75.7359880673     A.U. after    1 cycles
             Convg  =    0.5748D-09             -V/T =  2.0025
 <Sx>= 0.0000 <Sy>= 0.0000 <Sz>= 0.5000 <S**2>= 0.7527 S= 0.5013
 <L.S>= 0.000000000000E+00
 SMD-CDS (non-electrostatic) energy             (kcal/mol) =       0.73
 (included in total energy above)
 Annihilation of the first spin contaminant:
 S**2 before annihilation     0.7527,   after     0.7500
 Range of M.O.s used for correlation:     1    29
 NBasis=    29 NAE=     5 NBE=     4 NFC=     0 NFV=     0
 NROrb=     29 NOA=     5 NOB=     4 NVA=    24 NVB=    25
 Symmetrizing basis deriv contribution to polar:
 IMax=3 JMax=2 DiffMx= 0.00D+00
 G2DrvN: will do     3 centers at a time, making    1 passes doing MaxLOS=2.
 Calling FoFCou, ICntrl=  3107 FMM=F I1Cent=   0 AccDes= 0.00D+00.
 FoFDir/FoFCou used for L=0 through L=2.
 G2PCM: DoFxE=T DoFxN=T DoGrad=T DoPD/DQ/DG=FFF NFrqRd=   0 IEInf=0 DoCFld=F IF1Alg=4.
 End of G2Drv Frequency-dependent properties file   721 does not exist.
 End of G2Drv Frequency-dependent properties file   722 does not exist.
          IDoAtm=11
 NEqPCM:  Using equilibrium solvation (IEInf=0, Eps=  78.3553, EpsInf=   1.7778)
          Differentiating once with respect to electric field.
                with respect to dipole field.
          Differentiating once with respect to nuclear coordinates.
          Keep R1 and R2 ints in memory in canonical form, NReq=1037352.
          There are     9 degrees of freedom in the 1st order CPHF.  IDoFFX=5.
      6 vectors produced by pass  0 Test12= 2.44D-15 1.11D-08 XBig12= 3.84D+00 1.00D+00.
 AX will form     6 AO Fock derivatives at one time.
      6 vectors produced by pass  1 Test12= 2.44D-15 1.11D-08 XBig12= 2.56D-01 1.69D-01.
      6 vectors produced by pass  2 Test12= 2.44D-15 1.11D-08 XBig12= 4.39D-03 2.62D-02.
      6 vectors produced by pass  3 Test12= 2.44D-15 1.11D-08 XBig12= 3.34D-05 2.44D-03.
      6 vectors produced by pass  4 Test12= 2.44D-15 1.11D-08 XBig12= 3.99D-07 1.70D-04.
      6 vectors produced by pass  5 Test12= 2.44D-15 1.11D-08 XBig12= 4.90D-09 3.11D-05.
      6 vectors produced by pass  6 Test12= 2.44D-15 1.11D-08 XBig12= 5.14D-11 2.00D-06.
      2 vectors produced by pass  7 Test12= 2.44D-15 1.11D-08 XBig12= 3.72D-13 2.15D-07.
      1 vectors produced by pass  8 Test12= 2.44D-15 1.11D-08 XBig12= 5.30D-15 3.67D-08.
 Inverted reduced A of dimension    45 with in-core refinement.
 Isotropic polarizability for W=    0.000000        5.45 Bohr**3.
 End of Minotr Frequency-dependent properties file   721 does not exist.
 End of Minotr Frequency-dependent properties file   722 does not exist.

 **********************************************************************

            Population analysis using the SCF density.

 **********************************************************************

 Orbital symmetries:
 Alpha Orbitals:
       Occupied  (SG) (SG) (SG) (PI) (PI)
       Virtual   (SG) (SG) (PI) (PI) (SG) (SG) (SG) (PI) (SG) (PI)
                 (SG) (PI) (PI) (SG) (SG) (DLTA) (DLTA) (PI) (PI)
                 (SG) (PI) (PI) (SG) (SG)
 Beta  Orbitals:
       Occupied  (SG) (SG) (SG) (?A)
       Virtual   (?A) (SG) (SG) (?A) (?A) (SG) (SG) (SG) (SG) (PI)
                 (PI) (SG) (PI) (PI) (SG) (SG) (DLTA) (DLTA) (PI)
                 (PI) (SG) (PI) (PI) (SG) (SG)
 Unable to determine electronic state:  an orbital has unidentified symmetry.
 Alpha  occ. eigenvalues --  -19.68942  -1.14055  -0.56375  -0.50198  -0.44163
 Alpha virt. eigenvalues --    0.01355   0.16038   0.16996   0.17169   0.18800
 Alpha virt. eigenvalues --    0.24591   0.56201   1.00447   1.01108   1.03894
 Alpha virt. eigenvalues --    1.34774   1.38487   1.39462   2.06478   2.50871
 Alpha virt. eigenvalues --    2.81943   2.81953   3.10857   3.15120   3.80525
 Alpha virt. eigenvalues --    4.93668   5.00144   5.46579  49.87405
  Beta  occ. eigenvalues --  -19.67325  -1.05645  -0.53135  -0.40501
  Beta virt. eigenvalues --   -0.10251   0.01345   0.16011   0.17493   0.18279
  Beta virt. eigenvalues --    0.19545   0.22761   0.56780   1.01940   1.04964
  Beta virt. eigenvalues --    1.05902   1.37270   1.39952   1.40018   2.08140
  Beta virt. eigenvalues --    2.51129   2.87931   2.91564   3.15851   3.16956
  Beta virt. eigenvalues --    3.84535   5.01667   5.04013   5.48905  49.86920
          Condensed to atoms (all electrons):
              1          2
     1  O    8.038116   0.287723
     2  H    0.287723   0.386437
 Mulliken atomic charges:
              1
     1  O   -0.325840
     2  H    0.325840
 Sum of Mulliken atomic charges =   0.00000
 Mulliken charges with hydrogens summed into heavy atoms:
              1
     1  O    0.000000
 Sum of Mulliken charges with hydrogens summed into heavy atoms =   0.00000
          Atomic-Atomic Spin Densities.
              1          2
     1  O    1.021616   0.002543
     2  H    0.002543  -0.026702
 Mulliken atomic spin densities:
              1
     1  O    1.024159
     2  H   -0.024159
 Sum of Mulliken atomic spin densities =   1.00000
 APT atomic charges:
              1
     1  O   -0.427199
     2  H    0.427199
 Sum of APT charges=   0.00000
 APT Atomic charges with hydrogens summed into heavy atoms:
              1
     1  O    0.000000
     2  H    0.000000
 Sum of APT charges=   0.00000
 Electronic spatial extent (au):  <R**2>=             15.6776
 Charge=              0.0000 electrons
 Dipole moment (field-independent basis, Debye):
    X=              0.0000    Y=              0.0000    Z=             -2.2414  Tot=              2.2414
 Quadrupole moment (field-independent basis, Debye-Ang):
   XX=             -6.9232   YY=             -5.5367   ZZ=             -4.5682
   XY=              0.0000   XZ=              0.0000   YZ=              0.0000
 Traceless Quadrupole moment (field-independent basis, Debye-Ang):
   XX=             -1.2472   YY=              0.1393   ZZ=              1.1078
   XY=              0.0000   XZ=              0.0000   YZ=              0.0000
 Octapole moment (field-independent basis, Debye-Ang**2):
  XXX=              0.0000  YYY=              0.0000  ZZZ=             -2.7065  XYY=              0.0000
  XXY=              0.0000  XXZ=             -0.4755  XZZ=              0.0000  YZZ=              0.0000
  YYZ=             -0.3466  XYZ=              0.0000
 Hexadecapole moment (field-independent basis, Debye-Ang**3):
 XXXX=             -6.3414 YYYY=             -4.0543 ZZZZ=             -5.4392 XXXY=              0.0000
 XXXZ=              0.0000 YYYX=              0.0000 YYYZ=              0.0000 ZZZX=              0.0000
 ZZZY=              0.0000 XXYY=             -1.7326 XXZZ=             -2.2568 YYZZ=             -1.8519
 XXYZ=              0.0000 YYXZ=              0.0000 ZZXY=              0.0000
 N-N= 4.343169252731D+00 E-N=-2.773245695322D+02  KE= 1.119223351299D+02
 Symmetry A1   KE= 1.024273157507D+02
 Symmetry A2   KE= 2.106908249166D-35
 Symmetry B1   KE= 6.981328839414D+00
 Symmetry B2   KE= 2.513690539738D+00
  Exact polarizability:   4.825   0.000   3.890   0.000   0.000   7.626
 Approx polarizability:   3.646   0.000   2.933   0.000   0.000   6.354
                          Isotropic Fermi Contact Couplings
        Atom                 a.u.       MegaHertz       Gauss      10(-4) cm-1
     1  O(17)              0.16046     -97.26968     -34.70824     -32.44567
     2  H(1)              -0.01551     -69.33211     -24.73942     -23.12670
 --------------------------------------------------------
       Center         ----  Spin Dipole Couplings  ----
                      3XX-RR        3YY-RR        3ZZ-RR
 --------------------------------------------------------
     1   Atom       -1.873633      3.758900     -1.885267
     2   Atom       -0.131295     -0.042582      0.173877
 --------------------------------------------------------
                        XY            XZ            YZ
 --------------------------------------------------------
     1   Atom        0.000000      0.000000      0.000000
     2   Atom        0.000000      0.000000      0.000000
 --------------------------------------------------------


 ---------------------------------------------------------------------------------
              Anisotropic Spin Dipole Couplings in Principal Axis System
 ---------------------------------------------------------------------------------

       Atom             a.u.   MegaHertz   Gauss  10(-4) cm-1        Axes

              Baa    -1.8853   136.417    48.677    45.504  0.0000  0.0000  1.0000
     1 O(17)  Bbb    -1.8736   135.575    48.376    45.223  1.0000  0.0000  0.0000
              Bcc     3.7589  -271.991   -97.053   -90.727  0.0000  1.0000  0.0000
 
              Baa    -0.1313   -70.053   -24.997   -23.367  1.0000  0.0000  0.0000
     2 H(1)   Bbb    -0.0426   -22.720    -8.107    -7.578  0.0000  1.0000  0.0000
              Bcc     0.1739    92.772    33.103    30.945  0.0000  0.0000  1.0000
 

 ---------------------------------------------------------------------------------

 D2PCM: PCM CHGder 2nd derivatives, FixD1E=F FixD2E=F DoIter=F DoCFld=F I1PDM=0
 Calling FoFJK, ICntrl=    100127 FMM=F ISym2X=1 I1Cent= 0 IOpClX= 1 NMat=1 NMatS=1 NMatT=0.
 Full mass-weighted force constant matrix:
 Low frequencies --- -283.7527   -0.0018   -0.0012    0.0009  120.5801 3724.3214
 Diagonal vibrational polarizability:
        0.0000000       0.0000000       0.2054722
 Harmonic frequencies (cm**-1), IR intensities (KM/Mole), Raman scattering
 activities (A**4/AMU), depolarization ratios for plane and unpolarized
 incident light, reduced masses (AMU), force constants (mDyne/A),
 and normal coordinates:
                     1
                    SG
 Frequencies --  3724.3214
 Red. masses --     1.0671
 Frc consts  --     8.7206
 IR Inten    --   105.9045
  Atom  AN      X      Y      Z
     1   8     0.00   0.00   0.06
     2   1     0.00   0.00  -1.00

 -------------------
 - Thermochemistry -
 -------------------
 Temperature   298.150 Kelvin.  Pressure   1.00000 Atm.
 Atom     1 has atomic number  8 and mass  15.99491
 Atom     2 has atomic number  1 and mass   1.00783
 Molecular mass:    17.00274 amu.
 Principal axes and moments of inertia in atomic units:
                           1         2         3
     Eigenvalues --     0.00000   3.21847   3.21847
           X            0.00000   0.00000   1.00000
           Y            0.00000   1.00000   0.00000
           Z            1.00000   0.00000   0.00000
 This molecule is a prolate symmetric top.
 Rotational symmetry number  1.
 Rotational temperature (Kelvin)     26.91152
 Rotational constant (GHZ):         560.745809
 Zero-point vibrational energy      22276.4 (Joules/Mol)
                                    5.32418 (Kcal/Mol)
 Vibrational temperatures:   5358.46
          (Kelvin)
 
 Zero-point correction=                           0.008485 (Hartree/Particle)
 Thermal correction to Energy=                    0.010845
 Thermal correction to Enthalpy=                  0.011789
 Thermal correction to Gibbs Free Energy=        -0.008442
 Sum of electronic and zero-point Energies=            -75.727503
 Sum of electronic and thermal Energies=               -75.725143
 Sum of electronic and thermal Enthalpies=             -75.724199
 Sum of electronic and thermal Free Energies=          -75.744430
 
                     E (Thermal)             CV                S
                      KCal/Mol        Cal/Mol-Kelvin    Cal/Mol-Kelvin
 Total                    6.805              4.968             42.581
 Electronic               0.000              0.000              1.377
 Translational            0.889              2.981             34.437
 Rotational               0.592              1.987              6.767
 Vibrational              5.324              0.000              0.000
                       Q            Log10(Q)             Ln(Q)
 Total Bot       0.764030D+04          3.883110          8.941192
 Total V=0       0.610605D+08          7.785760         17.927375
 Vib (Bot)       0.125127D-03         -3.902650         -8.986183
 Vib (V=0)       0.100000D+01          0.000000          0.000000
 Electronic      0.200000D+01          0.301030          0.693147
 Translational   0.275571D+07          6.440234         14.829186
 Rotational      0.110789D+02          1.044497          2.405042
 ***** Axes restored to original set *****
 -------------------------------------------------------------------
 Center     Atomic                   Forces (Hartrees/Bohr)
 Number     Number              X              Y              Z
 -------------------------------------------------------------------
      1        8           0.000000000    0.000000000   -0.000131437
      2        1           0.000000000    0.000000000    0.000131437
 -------------------------------------------------------------------
 Cartesian Forces:  Max     0.000131437 RMS     0.000075885

 GradGradGradGradGradGradGradGradGradGradGradGradGradGradGradGradGradGrad
 Berny optimization.
 Internal  Forces:  Max     0.000131437 RMS     0.000131437
 Search for a local minimum.
 Step number   1 out of a maximum of    2
 All quantities printed in internal units (Hartrees-Bohrs-Radians)
 Second derivative matrix not updated -- analytic derivatives used.
 The second derivative matrix:
                          R1
           R1           0.49766
     Eigenvalues ---    0.49766
 Angle between quadratic step and forces=   0.00 degrees.
 Linear search not attempted -- first point.
 Iteration  1 RMS(Cart)=  0.00018675 RMS(Int)=  0.00000000
 Iteration  2 RMS(Cart)=  0.00000000 RMS(Int)=  0.00000000
 ClnCor:  largest displacement from symmetrization is 0.00D+00 for atom     0.
 Variable       Old X    -DE/DX   Delta X   Delta X   Delta X     New X
                                 (Linear)    (Quad)   (Total)
    R1        1.84247  -0.00013   0.00000  -0.00026  -0.00026   1.84221
         Item               Value     Threshold  Converged?
 Maximum Force            0.000131     0.000450     YES
 RMS     Force            0.000131     0.000300     YES
 Maximum Displacement     0.000132     0.001800     YES
 RMS     Displacement     0.000187     0.001200     YES
 Predicted change in Energy=-1.735685D-08
 Optimization completed.
    -- Stationary point found.
                           ----------------------------
                           !   Optimized Parameters   !
                           ! (Angstroms and Degrees)  !
 --------------------------                            --------------------------
 ! Name  Definition              Value          Derivative Info.                !
 --------------------------------------------------------------------------------
 ! R1    R(1,2)                  0.975          -DE/DX =   -0.0001              !
 --------------------------------------------------------------------------------
 GradGradGradGradGradGradGradGradGradGradGradGradGradGradGradGradGradGrad

 1|1|UNPC-DESKTOP-5V797MC|Freq|UM062X|6-311++G(d,p)|H1O1(2)|FLAVIO|17-J
 an-2019|0||#N Geom=AllCheck Guess=TCheck SCRF=Check GenChk UM062X/6-31
 1++G(d,p) Freq||oh_m062x.inp optimization frequencies||0,2|O,0.,0.,0.1
 08333|H,0.,0.,-0.86666||Version=IA32W-G09RevA.02|HF=-75.7359881|S2=0.7
 52681|S2-1=0.|S2A=0.750005|RMSD=5.748e-010|RMSF=7.589e-005|ZeroPoint=0
 .0084846|Thermal=0.0108451|Dipole=0.,0.,-0.8818532|DipoleDeriv=-0.4787
 208,0.,0.,0.,-0.4819497,0.,0.,0.,-0.3209265,0.4787208,0.,0.,0.,0.48194
 97,0.,0.,0.,0.3209265|Polar=4.8247815,0.,3.8903087,0.,0.,7.6264176|PG=
 C*V [C*(H1O1)]|NImag=0||0.00052166,0.,-0.00288881,0.,0.,0.49766136,-0.
 00052166,0.,0.,0.00052166,0.,0.00288881,0.,0.,-0.00288881,0.,0.,-0.497
 66136,0.,0.,0.49766136||0.,0.,0.00013144,0.,0.,-0.00013144|||@


 CLIMB THE MOUNTAINS AND GET THEIR GOOD TIDINGS.
 NATURE'S PEACE WILL FLOW INTO YOU AS SUNSHINE FLOWS INTO TREES.
 THE WINDS WILL BLOW THEIR OWN FRESHNESS INTO YOU, 
 AND CARES WILL DROP OFF LIKE AUTUMN LEAVES.

                                         -- JOHN MUIR
 Job cpu time:  0 days  0 hours  0 minutes 10.0 seconds.
 File lengths (MBytes):  RWF=      5 Int=      0 D2E=      0 Chk=      1 Scr=      1
 Normal termination of Gaussian 09 at Thu Jan 17 19:58:41 2019.
